/*--------------------------------*- C++ -*----------------------------------*\
| =========                 |                                                 |
| \\      /  F ield         | OpenFOAM: The Open Source CFD Toolbox           |
|  \\    /   O peration     | Version:  2206                                  |
|   \\  /    A nd           | Website:  www.openfoam.com                      |
|    \\/     M anipulation  |                                                 |
\*---------------------------------------------------------------------------*/
FoamFile
{
    version     2.0;
    format      ascii;
    arch        "LSB;label=32;scalar=64";
    class       volScalarField;
    location    "44";
    object      k;
}
// * * * * * * * * * * * * * * * * * * * * * * * * * * * * * * * * * * * * * //

dimensions      [0 2 -2 0 0 0 0];

internalField   nonuniform List<scalar> 
1750
(
0.00499891
0.00469339
0.00439906
0.00415587
0.00398079
0.0038731
0.00382487
0.00383395
0.00389594
0.00399056
0.00412324
0.00431406
0.00454271
0.00478059
0.00502516
0.00528919
0.00550868
0.00568665
0.00580897
0.00586909
0.00585915
0.00578671
0.00567912
0.00549535
0.0052785
0.00549881
0.00519323
0.0048778
0.0046238
0.00441754
0.00427974
0.00420228
0.00418403
0.00422266
0.00430131
0.00441914
0.00459244
0.0048111
0.00505032
0.00530347
0.00557881
0.00581044
0.00601392
0.00616512
0.0062544
0.00627318
0.00622514
0.00613297
0.00597024
0.00576464
0.00535712
0.00508454
0.00478697
0.00455583
0.00435197
0.00420434
0.00411212
0.00407431
0.00408962
0.0041446
0.00423695
0.00437701
0.00456039
0.00476856
0.00500107
0.00525739
0.00547038
0.0056697
0.00582618
0.00592893
0.00596891
0.00594651
0.00587829
0.00575008
0.00557854
0.00531483
0.00507123
0.00478762
0.00457303
0.00437168
0.00421692
0.00411232
0.00405773
0.00405356
0.00408887
0.00416064
0.00427478
0.00442918
0.00461717
0.00483184
0.00507284
0.00527207
0.0054682
0.00562964
0.00574399
0.00580201
0.00580094
0.00575257
0.0056507
0.00550775
0.0053043
0.00508782
0.00481763
0.00461758
0.00442043
0.00426098
0.00414631
0.0040776
0.00405608
0.00407368
0.0041272
0.00421901
0.00434976
0.00451753
0.00471439
0.00494164
0.00512851
0.00532021
0.00548501
0.00560897
0.00568228
0.00570081
0.00567013
0.00559084
0.00547279
0.00530436
0.00511316
0.00485732
0.00467089
0.00447979
0.00431802
0.00419545
0.00411484
0.00407822
0.00407964
0.00411636
0.00418861
0.00429761
0.0044448
0.00462397
0.00483728
0.00501221
0.00519774
0.00536388
0.00549539
0.00558172
0.00561816
0.00560404
0.00554498
0.00544851
0.00530597
0.00513892
0.00489887
0.00472559
0.00454225
0.0043804
0.00425208
0.00416164
0.00411177
0.00409881
0.00411967
0.00417401
0.00426287
0.00438933
0.00455072
0.00474932
0.00491234
0.00508996
0.0052553
0.00539226
0.0054895
0.00554203
0.00554385
0.00550326
0.00542593
0.00530487
0.00516137
0.00493875
0.00477834
0.00460425
0.00444437
0.00431246
0.00421404
0.00415259
0.00412654
0.00413307
0.00417086
0.00424061
0.00434683
0.00449009
0.0046732
0.00482409
0.00499219
0.00515461
0.0052949
0.00540097
0.00546756
0.00548497
0.00546134
0.00540148
0.00529876
0.00517862
0.00497515
0.00482742
0.00466385
0.00450784
0.00437433
0.00426975
0.00419845
0.00416014
0.00415401
0.00417659
0.00422839
0.00431498
0.00443978
0.00460667
0.00474514
0.00490233
0.00505976
0.00520124
0.00531409
0.00539277
0.00542492
0.00541722
0.00537374
0.00528617
0.00518963
0.00500707
0.00487183
0.00471987
0.00456947
0.00443615
0.00432727
0.00424771
0.00419825
0.0041807
0.00418951
0.0042246
0.00429233
0.00439852
0.00454854
0.0046743
0.00481942
0.00496994
0.0051105
0.00522803
0.00531684
0.00536242
0.00536998
0.00534239
0.00526707
0.00519365
0.00503391
0.00491093
0.00477151
0.00462831
0.0044968
0.00438543
0.00429918
0.00424008
0.00421167
0.00420839
0.00422808
0.00427786
0.00436548
0.00449814
0.00461095
0.00474308
0.00488493
0.00502251
0.00514262
0.00523954
0.00529699
0.00531906
0.00530682
0.00524197
0.00519019
0.00505496
0.00494424
0.00481815
0.00468361
0.0045555
0.00444322
0.0043519
0.00428472
0.00424615
0.00423219
0.0042378
0.00427084
0.00434007
0.00445502
0.00455475
0.00467319
0.00480483
0.00493746
0.00505806
0.00516101
0.00522871
0.00526406
0.00526677
0.0052114
0.00517931
0.0050693
0.00497137
0.00485929
0.00473475
0.00461154
0.00449982
0.00440497
0.00433132
0.00428378
0.00425979
0.0042528
0.00427051
0.00432194
0.00441883
0.00450546
0.00460975
0.00472987
0.00485571
0.00497476
0.00508161
0.00515787
0.00520483
0.00522217
0.00517557
0.00516153
0.00507619
0.00499199
0.00489451
0.00478115
0.0046643
0.00455458
0.00445768
0.00437895
0.00432388
0.00429075
0.00427199
0.00427611
0.00431087
0.00438922
0.00446291
0.0045528
0.00466035
0.00477772
0.00489326
0.00500188
0.0050849
0.00514178
0.00517281
0.00513437
0.00513788
0.00507499
0.00500583
0.00492343
0.00482231
0.00471317
0.00460686
0.00450937
0.00442688
0.00436557
0.00432442
0.0042951
0.00428649
0.00430626
0.00436616
0.00442693
0.00450234
0.00459653
0.00470398
0.00481416
0.00492242
0.00501033
0.00507537
0.00511871
0.00508759
0.00510865
0.00506576
0.00501268
0.00494569
0.00485773
0.0047576
0.00465604
0.00455938
0.00447448
0.00440813
0.00436012
0.00432159
0.00430099
0.00430722
0.00434958
0.0043973
0.00445833
0.00453865
0.00463497
0.00473809
0.00484395
0.0049348
0.00500618
0.0050603
0.00503562
0.00507353
0.00504883
0.00501239
0.00496099
0.00488697
0.00479703
0.00470154
0.00460708
0.00452111
0.00445092
0.00439721
0.00435075
0.00431939
0.00431253
0.00433933
0.00437377
0.00442067
0.00448686
0.00457108
0.00466566
0.00476718
0.004859
0.00493484
0.00499809
0.00497895
0.00503232
0.00502464
0.00500491
0.00496909
0.00490962
0.00483093
0.00474276
0.00465184
0.00456611
0.00449329
0.00443502
0.00438187
0.00434122
0.00432154
0.00433489
0.00435598
0.00438917
0.0044412
0.00451265
0.00459743
0.00469282
0.00478366
0.00486206
0.00493269
0.0049182
0.00498497
0.00499378
0.00499005
0.00496977
0.0049253
0.00485879
0.0047791
0.00469303
0.00460884
0.00453463
0.00447292
0.00441426
0.00436573
0.00433415
0.00433534
0.00434354
0.00436356
0.00440164
0.00445991
0.00453387
0.00462157
0.00470955
0.0047886
0.00486475
0.00485404
0.00493179
0.00495661
0.0049679
0.00496291
0.00493368
0.00488015
0.00481001
0.00473003
0.00464866
0.00457428
0.00451026
0.00444725
0.00439221
0.00435013
0.00433957
0.00433623
0.0043435
0.00436803
0.00441299
0.00447539
0.00455404
0.00463741
0.00471526
0.00479499
0.0047872
0.0048735
0.00491319
0.00493888
0.00494856
0.00493422
0.00489456
0.00483492
0.0047622
0.00468491
0.00461158
0.00454637
0.00448015
0.0044199
0.00436884
0.0043473
0.004333
0.00432885
0.00434011
0.00437187
0.00442225
0.00449079
0.00456794
0.00464284
0.00472418
0.00471848
0.00481088
0.00486389
0.00490302
0.0049272
0.00492678
0.0049014
0.00485332
0.00478895
0.00471693
0.00464587
0.00458058
0.00451228
0.00444807
0.00438955
0.00435795
0.0043336
0.00431852
0.00431788
0.00433645
0.0043746
0.00443223
0.00450177
0.00457211
0.00465311
0.0046487
0.00474481
0.0048092
0.00486067
0.00489838
0.00491199
0.00490019
0.00486472
0.0048097
0.00474408
0.00467647
0.00461223
0.00454297
0.00447598
0.00441149
0.00437091
0.00433745
0.00431233
0.00430057
0.00430649
0.00433247
0.00437867
0.00443946
0.00450382
0.00458259
0.00457868
0.00467621
0.00474979
0.00481228
0.00486237
0.0048899
0.00489093
0.00486851
0.00482391
0.00476573
0.00470272
0.00464062
0.0045715
0.00450291
0.00443391
0.00438552
0.00434389
0.00430971
0.00428742
0.00428191
0.00429573
0.00433029
0.00438143
0.00443862
0.00451339
0.00450926
0.00460605
0.00468645
0.00475842
0.00481955
0.0048601
0.0048742
0.0048642
0.00483107
0.00478126
0.00472396
0.00466506
0.00459718
0.0045281
0.00445601
0.00440108
0.00435227
0.00431
0.00427815
0.00426198
0.0042642
0.0042871
0.00432799
0.00437709
0.00444625
0.00444121
0.0045353
0.00462004
0.00469977
0.00477045
0.00482285
0.00485
0.00485173
0.00483065
0.00479011
0.00473954
0.00468487
0.00461931
0.00455082
0.00447701
0.00441686
0.00436187
0.00431255
0.00427214
0.00424611
0.00423759
0.004249
0.00427931
0.00431965
0.00438182
0.00437525
0.00446489
0.00455153
0.00463713
0.0047157
0.00477861
0.00481795
0.0048317
0.0048221
0.00479183
0.00474884
0.0046994
0.00463719
0.00457033
0.00449611
0.00443209
0.00437198
0.00431664
0.00426873
0.00423384
0.00421509
0.004216
0.00423541
0.00426661
0.00432065
0.004312
0.00439571
0.0044819
0.00457138
0.00465606
0.00472793
0.00477835
0.0048042
0.00480515
0.00478603
0.00475136
0.00470796
0.00465015
0.00458592
0.00451251
0.004446
0.00438183
0.00432156
0.0042672
0.00422452
0.00419636
0.00418753
0.00419616
0.00421813
0.00426316
0.00425198
0.00432854
0.00441213
0.00450349
0.00459236
0.00467151
0.00473168
0.00476882
0.00478043
0.00477223
0.00474662
0.00471005
0.00465749
0.00459687
0.00452544
0.00445778
0.00439065
0.00432655
0.00426682
0.00421745
0.00418087
0.00416284
0.00416152
0.0041742
0.00420963
0.00419556
0.00426403
0.00434315
0.0044344
0.00452554
0.00461017
0.00467855
0.00472591
0.0047483
0.00475001
0.00473425
0.00470515
0.00465871
0.00460247
0.00453412
0.00446666
0.00439766
0.00433083
0.00426682
0.00421187
0.00416793
0.00414159
0.00413091
0.00413467
0.00416018
0.00414299
0.00420266
0.00427582
0.00436507
0.00445661
0.0045448
0.00461973
0.00467598
0.00470845
0.00471985
0.00471404
0.00469282
0.00465326
0.00460221
0.00453783
0.0044718
0.00440206
0.0043336
0.00426642
0.00420703
0.0041568
0.00412315
0.00410377
0.00409929
0.00411479
0.00409437
0.00414473
0.00421083
0.00429638
0.00438658
0.00447637
0.00455608
0.00461972
0.00466126
0.00468218
0.00468561
0.00467277
0.00464068
0.00459549
0.00453596
0.00447251
0.00440312
0.0043341
0.00426484
0.00420212
0.00414672
0.00410681
0.0040796
0.00406745
0.00407337
0.00404962
0.00409038
0.00414877
0.0042291
0.00431642
0.00440589
0.00448856
0.00455795
0.00460733
0.004637
0.00464932
0.00464487
0.00462067
0.00458183
0.0045279
0.00446807
0.00440011
0.00433152
0.00426128
0.00419634
0.00413688
0.00409179
0.00405777
0.00403827
0.00403597
0.00400851
0.0040395
0.00409001
0.0041639
0.004247
0.00433438
0.00441817
0.00449158
0.00454738
0.00458479
0.00460574
0.00460878
0.00459305
0.00456089
0.00451314
0.00445781
0.00439231
0.00432513
0.00425496
0.0041889
0.00412649
0.00407731
0.00403752
0.00401157
0.00400172
0.00397075
0.00399224
0.00403476
0.00410124
0.00417902
0.00426282
0.00434591
0.00442162
0.00448228
0.00452621
0.00455489
0.00456537
0.00455749
0.00453243
0.00449131
0.00444117
0.00437911
0.00431422
0.00424512
0.004179
0.00411473
0.00406253
0.00401807
0.00398666
0.00396961
0.0039351
0.00394851
0.00398303
0.00404142
0.00411304
0.00419207
0.00427278
0.00434909
0.00441298
0.00446208
0.00449734
0.00451533
0.00451379
0.00449639
0.00446216
0.00441772
0.00435993
0.00429817
0.00423104
0.00416588
0.00410081
0.00404665
0.00399861
0.00396274
0.00393947
0.0039004
0.00390826
0.00393459
0.00398453
0.00404942
0.00412283
0.00419967
0.00427496
0.00434049
0.00439329
0.00443384
0.00445854
0.00446296
0.00445271
0.00442559
0.00438714
0.00433434
0.00427642
0.00421206
0.0041488
0.00408395
0.00402885
0.00397832
0.00393897
0.00391074
0.0038664
0.00387022
0.00388937
0.0039304
0.00398834
0.00405556
0.0041274
0.00420017
0.0042658
0.00432081
0.00436529
0.00439549
0.00440598
0.0044013
0.00438167
0.00434924
0.00430201
0.00424852
0.00418762
0.0041271
0.00406343
0.00400834
0.00395637
0.00391453
0.00388259
0.00383282
0.00383329
0.00384651
0.00387904
0.00392979
0.00399054
0.00405656
0.00412554
0.00418983
0.00424561
0.00429263
0.00432699
0.00434322
0.00434303
0.00433035
0.00430402
0.00426276
0.00421414
0.00415727
0.00410018
0.00403855
0.00398439
0.00393198
0.00388859
0.00385411
0.00379927
0.00379637
0.003805
0.0038303
0.00387355
0.00392779
0.00398756
0.00405173
0.00411341
0.00416861
0.00421681
0.00425397
0.00427482
0.00427909
0.00427185
0.00425165
0.00421659
0.00417307
0.00412068
0.00406755
0.00400874
0.00395631
0.00390438
0.00386036
0.00382438
0.00376502
0.00375845
0.00376412
0.00378369
0.00381925
0.00386713
0.00392054
0.00397919
0.00403723
0.00409062
0.00413874
0.00417741
0.00420154
0.00421038
0.00420681
0.00419208
0.00416365
0.00412525
0.00407766
0.00402885
0.00397347
0.0039235
0.00387288
0.00382912
0.00379249
0.00372918
0.00371916
0.00372282
0.00373799
0.00376666
0.00380822
0.00385542
0.00390818
0.00396177
0.00401231
0.00405923
0.00409818
0.00412428
0.00413709
0.0041364
0.00412613
0.00410384
0.00407075
0.00402817
0.00398384
0.00393237
0.00388544
0.00383686
0.00379416
0.00375762
0.00369082
0.00367799
0.00368022
0.00369211
0.00371517
0.00375049
0.00379186
0.00383867
0.00388731
0.0039342
0.00397894
0.00401708
0.00404399
0.00405956
0.00406167
0.00405465
0.00403726
0.00400982
0.0039723
0.00393244
0.00388518
0.00384175
0.00379578
0.00375488
0.00371906
0.00364909
0.00363434
0.00363559
0.00364507
0.00366393
0.0036933
0.00372938
0.00377044
0.0038139
0.00385656
0.00389835
0.00393476
0.00396147
0.00397844
0.00398336
0.00397839
0.00396479
0.0039424
0.00391032
0.00387469
0.00383178
0.00379214
0.00374923
0.00371075
0.00367619
0.00360321
0.00358756
0.00358819
0.00359599
0.00361174
0.00363606
0.00366732
0.00370304
0.00374136
0.00377948
0.00381776
0.00385167
0.00387739
0.00389454
0.00390177
0.00389817
0.00388739
0.00386903
0.00384234
0.00381073
0.00377221
0.00373648
0.00369691
0.00366132
0.0036285
0.00355255
0.00353702
0.00353734
0.00354405
0.0035576
0.00357798
0.00360492
0.00363585
0.00366927
0.00370279
0.00373722
0.00376811
0.00379218
0.00380854
0.00381728
0.00381461
0.00380587
0.00379059
0.00376846
0.00374085
0.00370666
0.00367477
0.00363866
0.00360626
0.00357562
0.00349661
0.00348215
0.00348242
0.00348855
0.00350062
0.0035182
0.00354131
0.00356812
0.00359706
0.00362615
0.00365659
0.00368413
0.00370607
0.00372098
0.00373027
0.00372822
0.00372086
0.00370786
0.0036891
0.0036654
0.00363544
0.00360711
0.00357447
0.00354537
0.00351727
0.00343504
0.00342243
0.00342289
0.00342883
0.00344001
0.00345572
0.00347575
0.00349905
0.00352401
0.00354901
0.00357554
0.00359959
0.00361907
0.00363216
0.00364108
0.00363939
0.00363286
0.00362148
0.00360517
0.0035846
0.00355886
0.0035337
0.00350441
0.00347859
0.00345328
0.00336768
0.00335748
0.00335829
0.00336436
0.00337512
0.00338965
0.00340744
0.00342782
0.00344933
0.0034707
0.00349353
0.00351418
0.003531
0.00354215
0.00354992
0.00354829
0.00354228
0.00353196
0.00351738
0.00349917
0.00347707
0.00345478
0.00342868
0.00340597
0.00338359
0.0032945
0.00328701
0.00328829
0.00329471
0.00330542
0.0033193
0.00333558
0.00335359
0.0033722
0.00339047
0.00340995
0.00342742
0.00344155
0.00345079
0.00345686
0.00345507
0.00344931
0.00343963
0.0034262
0.00340972
0.00339047
0.00337068
0.00334756
0.00332769
0.00330824
0.00321564
0.00321084
0.00321267
0.00321961
0.00323052
0.0032442
0.00325944
0.00327562
0.00329181
0.00330757
0.00332407
0.0033387
0.00335024
0.00335771
0.00336181
0.00335978
0.003354
0.00334463
0.00333194
0.00331668
0.00329951
0.00328177
0.00326139
0.00324403
0.00322733
0.00313134
0.00312884
0.00313133
0.00313894
0.00315022
0.003164
0.00317838
0.00319321
0.00320744
0.00322127
0.00323517
0.00324735
0.00325656
0.0032624
0.00326457
0.00326226
0.00325629
0.00324699
0.00323476
0.00322037
0.00320462
0.0031885
0.0031705
0.00315532
0.00314106
0.00304191
0.00304087
0.00304445
0.00305278
0.00306449
0.00307831
0.00309202
0.00310584
0.00311853
0.00313086
0.00314262
0.00315269
0.00315994
0.00316425
0.00316488
0.0031622
0.00315594
0.00314661
0.00313468
0.00312091
0.00310611
0.00309131
0.00307521
0.0030619
0.00304967
0.0029476
0.00294754
0.00295205
0.00296115
0.0029732
0.00298692
0.00300013
0.00301314
0.00302465
0.00303575
0.00304591
0.0030541
0.00305978
0.00306267
0.00306246
0.00305917
0.00305262
0.00304328
0.00303161
0.00301836
0.00300419
0.00299047
0.00297584
0.0029641
0.00295348
0.00284869
0.0028493
0.00285439
0.00286417
0.00287632
0.00288986
0.00290262
0.00291489
0.00292552
0.00293556
0.00294448
0.00295122
0.00295555
0.00295726
0.00295655
0.00295282
0.00294606
0.00293678
0.00292541
0.00291265
0.00289898
0.00288618
0.00287268
0.00286219
0.00285285
0.00274526
0.00274649
0.00275198
0.002762
0.00277409
0.00278729
0.00279958
0.0028111
0.00282097
0.00283011
0.00283802
0.00284369
0.00284689
0.00284774
0.00284662
0.0028427
0.00283595
0.00282688
0.00281589
0.00280367
0.0027905
0.00277852
0.00276594
0.00275643
0.00274816
0.00263752
0.00263942
0.0026451
0.00265503
0.00266684
0.00267948
0.00269123
0.00270194
0.00271106
0.00271938
0.00272643
0.00273126
0.00273351
0.00273382
0.00273252
0.00272857
0.00272202
0.00271333
0.00270287
0.0026913
0.00267872
0.00266752
0.00265576
0.00264707
0.00263968
0.00252597
0.00252828
0.00253405
0.00254363
0.00255496
0.00256684
0.00257789
0.00258769
0.00259605
0.00260357
0.00260981
0.00261391
0.00261538
0.00261544
0.00261409
0.0026103
0.00260413
0.002596
0.00258625
0.00257545
0.00256363
0.00255322
0.00254223
0.00253429
0.00252765
0.00241099
0.00241347
0.0024192
0.00242825
0.0024389
0.00244985
0.00246005
0.00246883
0.00247636
0.00248304
0.00248849
0.00249183
0.00249281
0.00249271
0.00249144
0.00248795
0.00248232
0.00247492
0.00246602
0.00245614
0.00244529
0.00243569
0.00242552
0.00241829
0.00241232
0.00229297
0.00229547
0.002301
0.00230941
0.00231921
0.0023291
0.00233828
0.00234597
0.0023526
0.00235839
0.00236301
0.0023655
0.00236625
0.00236603
0.00236492
0.00236184
0.00235688
0.00235034
0.00234242
0.00233359
0.00232388
0.00231516
0.00230587
0.00229935
0.00229402
0.00217243
0.00217487
0.00218008
0.00218775
0.00219658
0.00220533
0.00221333
0.00221994
0.00222556
0.00223039
0.00223406
0.00223577
0.00223635
0.0022361
0.00223519
0.00223259
0.00222837
0.00222278
0.00221594
0.00220825
0.00219982
0.00219202
0.00218371
0.00217791
0.00217322
0.00205011
0.00205245
0.00205724
0.00206414
0.0020719
0.00207949
0.00208619
0.00209172
0.00209629
0.00210008
0.00210259
0.00210379
0.00210418
0.00210394
0.00210325
0.00210116
0.00209773
0.00209312
0.00208742
0.00208092
0.00207384
0.00206702
0.00205974
0.0020547
0.00205065
0.00192711
0.0019293
0.00193364
0.00193973
0.00194638
0.00195281
0.00195818
0.00196261
0.00196611
0.00196872
0.0019702
0.00197095
0.00197117
0.00197095
0.00197049
0.00196892
0.00196629
0.00196268
0.00195813
0.00195283
0.00194709
0.00194127
0.00193507
0.00193079
0.00192739
0.00180495
0.001807
0.00181085
0.00181613
0.00182168
0.00182694
0.00183103
0.00183437
0.00183678
0.00183806
0.00183883
0.00183915
0.0018392
0.00183902
0.00183878
0.00183774
0.0018359
0.00183328
0.00182984
0.00182571
0.00182116
0.00181643
0.00181132
0.00180777
0.00180499
0.00168581
0.00168771
0.00169109
0.00169554
0.00170007
0.00170415
0.00170712
0.00170935
0.00171045
0.00171085
0.001711
0.00171093
0.00171073
0.00171064
0.00171063
0.00171012
0.00170906
0.00170738
0.00170499
0.00170195
0.00169847
0.00169476
0.00169073
0.00168781
0.00168573
0.00157274
0.00157444
0.00157737
0.00158102
0.0015846
0.00158757
0.00158952
0.0015906
0.00159073
0.0015904
0.00158995
0.00158943
0.00158906
0.00158915
0.00158931
0.00158945
0.00158914
0.00158822
0.00158671
0.00158465
0.00158217
0.0015794
0.00157635
0.00157396
0.00157255
0.00146977
0.00147124
0.00147376
0.00147665
0.00147939
0.00148137
0.0014824
0.0014825
0.00148192
0.00148085
0.0014799
0.00147896
0.00147854
0.00147874
0.00147906
0.00147977
0.00148034
0.00148018
0.00147934
0.00147808
0.00147642
0.00147446
0.00147223
0.00147031
0.00146947
0.00138213
0.00138336
0.00138553
0.00138774
0.0013898
0.00139092
0.00139119
0.00139053
0.00138937
0.0013877
0.00138636
0.00138507
0.00138464
0.00138487
0.00138545
0.00138657
0.00138772
0.00138853
0.00138835
0.00138763
0.0013866
0.00138523
0.00138367
0.00138213
0.00138173
0.00131628
0.00131731
0.0013192
0.00132085
0.00132247
0.0013228
0.00132258
0.00132141
0.00131984
0.0013177
0.00131609
0.00131454
0.00131412
0.00131436
0.00131517
0.00131658
0.00131815
0.00131949
0.00132014
0.00131983
0.00131924
0.00131823
0.00131718
0.0013159
0.00131582
0.0012796
0.00128054
0.00128218
0.00128354
0.00128485
0.00128484
0.00128429
0.00128279
0.00128101
0.00127864
0.00127693
0.00127527
0.00127495
0.0012752
0.00127619
0.00127774
0.00127963
0.00128109
0.00128229
0.00128219
0.00128182
0.00128096
0.00128015
0.00127905
0.00127911
)
;

boundaryField
{
    rigidLid
    {
        type            zeroGradient;
    }
    bed
    {
        type            kqRWallFunction;
        value           nonuniform List<scalar> 
25
(
0.00499891
0.00469339
0.00439906
0.00415587
0.00398079
0.0038731
0.00382487
0.00383395
0.00389594
0.00399056
0.00412324
0.00431406
0.00454271
0.00478059
0.00502516
0.00528919
0.00550868
0.00568665
0.00580897
0.00586909
0.00585915
0.00578671
0.00567912
0.00549535
0.0052785
)
;
    }
    inlet
    {
        type            cyclic;
    }
    outlet
    {
        type            cyclic;
    }
    frontAndBack
    {
        type            empty;
    }
}


// ************************************************************************* //
