/*--------------------------------*- C++ -*----------------------------------*\
| =========                 |                                                 |
| \\      /  F ield         | OpenFOAM: The Open Source CFD Toolbox           |
|  \\    /   O peration     | Version:  2206                                  |
|   \\  /    A nd           | Website:  www.openfoam.com                      |
|    \\/     M anipulation  |                                                 |
\*---------------------------------------------------------------------------*/
FoamFile
{
    version     2.0;
    format      ascii;
    arch        "LSB;label=32;scalar=64";
    class       volScalarField;
    location    "44";
    object      nut;
}
// * * * * * * * * * * * * * * * * * * * * * * * * * * * * * * * * * * * * * //

dimensions      [0 2 -1 0 0 0 0];

internalField   nonuniform List<scalar> 
1750
(
6.09142e-05
5.95912e-05
5.83068e-05
5.72991e-05
5.66695e-05
5.64093e-05
5.64604e-05
5.68032e-05
5.73979e-05
5.80884e-05
5.88995e-05
5.99489e-05
6.1081e-05
6.21188e-05
6.30755e-05
6.40567e-05
6.47173e-05
6.51475e-05
6.53264e-05
6.52659e-05
6.49553e-05
6.44462e-05
6.38856e-05
6.30356e-05
6.2116e-05
0.000174267
0.000171533
0.000168008
0.000166081
0.000164129
0.000162909
0.000162268
0.000162228
0.000162831
0.00016385
0.000165188
0.000166998
0.000169185
0.000171464
0.000173855
0.000176623
0.000178107
0.000179599
0.000180597
0.000181058
0.000180975
0.000180383
0.000179494
0.000178092
0.000176443
0.000297268
0.00029391
0.00028819
0.000286526
0.000283732
0.000281428
0.000279781
0.000278836
0.000278705
0.000279227
0.000280309
0.00028194
0.000284093
0.000286645
0.000290101
0.000294738
0.000296349
0.000298777
0.000300757
0.000302084
0.000302726
0.000302678
0.000302017
0.000300787
0.000299258
0.000433387
0.000430405
0.000422607
0.000422214
0.000419298
0.000416282
0.000413657
0.000411568
0.000410187
0.000409575
0.00040975
0.000410442
0.00041156
0.000413922
0.000417784
0.000424093
0.000425122
0.000428139
0.00043104
0.000433366
0.000435026
0.000436006
0.000436019
0.000435453
0.000434826
0.000579414
0.000577743
0.000568095
0.000569907
0.000567786
0.000564699
0.000561424
0.000558297
0.000555387
0.00055315
0.000551872
0.000550991
0.000550455
0.000551683
0.000555171
0.000562767
0.000562482
0.000565514
0.000569043
0.000572294
0.00057503
0.000577439
0.000578477
0.000578975
0.000579788
0.000734006
0.000734362
0.000723227
0.000728023
0.000727674
0.000725341
0.000721981
0.000718151
0.000713845
0.000709675
0.000706526
0.000703661
0.000700818
0.000699937
0.000702403
0.000710535
0.000708261
0.000710578
0.000714238
0.000718152
0.00072185
0.000725872
0.000728234
0.000730098
0.000732596
0.000896412
0.000899401
0.000887258
0.000895657
0.000898042
0.000897398
0.000894716
0.000890743
0.000885424
0.00087933
0.00087401
0.000868833
0.000863194
0.000859287
0.00086028
0.000867734
0.000862949
0.000863713
0.000866834
0.000870969
0.000875361
0.000880924
0.000884872
0.0008883
0.000892571
0.00106618
0.00107234
0.00105979
0.00107225
0.00107826
0.0010803
0.00107923
0.00107583
0.00107007
0.00106226
0.00105478
0.00104712
0.00103826
0.00103061
0.00102956
0.00103525
0.00102734
0.00102565
0.00102741
0.00103115
0.00103581
0.00104261
0.00104833
0.00105342
0.00105947
0.00124301
0.00125287
0.00124065
0.00125742
0.00126789
0.00127359
0.00127514
0.0012732
0.00126775
0.00125861
0.00124925
0.00123912
0.00122681
0.00121486
0.00121112
0.00121411
0.00120242
0.00119731
0.00119677
0.00119936
0.00120368
0.00121127
0.00121871
0.00122551
0.00123335
0.00142669
0.0014408
0.00142978
0.00145095
0.00146656
0.0014769
0.00148212
0.00148267
0.00147835
0.0014686
0.00145773
0.0014454
0.0014296
0.00141296
0.00140587
0.00140539
0.00138923
0.00137976
0.00137589
0.0013764
0.00137965
0.00138745
0.0013962
0.00140478
0.00141448
0.00161736
0.00163601
0.00162724
0.0016527
0.00167402
0.00168992
0.00169983
0.00170397
0.00170177
0.00169236
0.0016804
0.00166643
0.00164733
0.00162583
0.00161471
0.00161016
0.00158892
0.00157414
0.00156585
0.00156326
0.00156453
0.00157182
0.00158127
0.00159153
0.00160308
0.00181538
0.00183845
0.00183308
0.00186261
0.00189009
0.00191238
0.00192798
0.00193683
0.00193784
0.00192982
0.00191755
0.0019026
0.00188057
0.00185432
0.00183852
0.00182948
0.00180262
0.00178167
0.00176785
0.00176102
0.0017593
0.00176518
0.00177463
0.00178606
0.0017995
0.00202127
0.00204831
0.00204727
0.00208068
0.00211465
0.00214405
0.00216632
0.00218094
0.00218631
0.00218087
0.00216938
0.00215408
0.00212975
0.00209915
0.00207818
0.00206436
0.00203148
0.0020036
0.00198315
0.0019709
0.00196504
0.00196846
0.00197714
0.0019888
0.00200417
0.00223551
0.00226606
0.0022698
0.00230699
0.00234764
0.00238478
0.00241461
0.00243605
0.00244694
0.00244527
0.00243579
0.0024212
0.00239506
0.0023609
0.0023346
0.00231568
0.00227661
0.00224115
0.00221308
0.00219419
0.00218297
0.00218273
0.00218973
0.00220055
0.00221748
0.00245851
0.0024925
0.00250069
0.00254169
0.00258908
0.00263444
0.00267264
0.0027019
0.00271947
0.0027228
0.0027165
0.00270403
0.00267697
0.00263978
0.00260842
0.00258443
0.00253904
0.00249554
0.00245895
0.00243223
0.00241438
0.00240917
0.00241344
0.0024223
0.00243996
0.00269063
0.00272829
0.00274035
0.00278502
0.00283909
0.002893
0.00294026
0.00297826
0.00300363
0.00301319
0.00301127
0.00300232
0.00297576
0.00293607
0.00289999
0.00287148
0.00281972
0.00276791
0.00272207
0.00268643
0.00266069
0.0026491
0.00264943
0.00265518
0.00267244
0.00293256
0.00297378
0.00298935
0.0030373
0.00309784
0.00316048
0.00321735
0.00326491
0.00329913
0.00331617
0.00331986
0.00331565
0.0032915
0.00325028
0.0032093
0.00317762
0.00311947
0.00305931
0.00300372
0.00295818
0.00292333
0.00290392
0.002899
0.00290035
0.00291613
0.00318528
0.00322938
0.00324847
0.00329897
0.00336562
0.00343702
0.0035039
0.0035617
0.00360574
0.00363143
0.003642
0.00364373
0.00362383
0.00358265
0.00353659
0.00350323
0.00343895
0.00337065
0.00330505
0.00324884
0.00320377
0.00317512
0.00316355
0.00315908
0.00317225
0.00345017
0.00349554
0.00351868
0.00357043
0.00364283
0.00372284
0.00379995
0.00386853
0.00392323
0.00395868
0.00397736
0.00398628
0.00397219
0.00393317
0.00388258
0.00384812
0.00377863
0.00370272
0.00362712
0.0035597
0.00350347
0.00346423
0.00344456
0.00343278
0.00344205
0.00372889
0.00377297
0.00380075
0.00385239
0.00392999
0.00401827
0.00410566
0.00418538
0.00425143
0.00429763
0.00432561
0.00434295
0.00433594
0.00430157
0.00424799
0.00421167
0.00413906
0.00405609
0.0039708
0.00389194
0.00382383
0.00377279
0.0037436
0.00372298
0.0037269
0.00402288
0.0040632
0.0040951
0.00414603
0.00422787
0.00432352
0.00442126
0.00451232
0.00459025
0.00464807
0.00468645
0.00471338
0.0047147
0.00468714
0.00463271
0.00459425
0.0045199
0.00443143
0.00433679
0.00424657
0.00416614
0.00410231
0.00406225
0.00403127
0.00402827
0.00433368
0.00436806
0.00440213
0.00445243
0.00453769
0.0046392
0.00474694
0.00484953
0.0049397
0.00500981
0.00505958
0.00509721
0.00510803
0.00508889
0.00503649
0.00499596
0.00492144
0.00482833
0.00472592
0.00462442
0.00453154
0.0044542
0.00440206
0.00435931
0.00434774
0.00466292
0.0046892
0.00472299
0.00477278
0.00485991
0.00496677
0.005083
0.00519729
0.00529989
0.00538278
0.00544477
0.0054941
0.00551553
0.00550626
0.0054584
0.00541688
0.00534352
0.00524714
0.00513811
0.00502608
0.00492098
0.00482974
0.00476453
0.00470878
0.00468694
0.0050123
0.00502839
0.00505976
0.00510771
0.00519564
0.00530722
0.00543033
0.00555587
0.00567105
0.005767
0.00584187
0.00590375
0.00593679
0.00593868
0.00589764
0.00585673
0.00578588
0.0056877
0.00557306
0.00545222
0.00533518
0.00523003
0.00515104
0.00508129
0.00504756
0.00538355
0.0053875
0.0054141
0.00545859
0.00554615
0.00566109
0.00579056
0.00592565
0.00605357
0.00616262
0.00625082
0.00632594
0.00637148
0.0063856
0.0063535
0.00631496
0.00624809
0.00614959
0.00603092
0.00590259
0.00577463
0.00565591
0.00556278
0.00547835
0.00543123
0.00577839
0.00576845
0.00578779
0.00582694
0.00591295
0.00602964
0.00616482
0.00630761
0.00644785
0.00656991
0.00667169
0.00676054
0.00681931
0.00684654
0.00682527
0.00679079
0.00672981
0.0066323
0.00651128
0.00637695
0.0062396
0.00610796
0.00600071
0.00590134
0.00583954
0.00619845
0.00617318
0.00618268
0.00621453
0.0062976
0.00641435
0.00655373
0.00670366
0.00685431
0.00698944
0.00710469
0.00720754
0.00728011
0.00732114
0.00731226
0.00728371
0.00723034
0.00713512
0.00701356
0.00687506
0.00672945
0.00658685
0.00646552
0.00635136
0.00627391
0.00664523
0.00660354
0.0066006
0.0066245
0.00670058
0.00681683
0.00695869
0.00711517
0.00727373
0.00742188
0.00755026
0.00766703
0.00775382
0.00780911
0.00781386
0.0077931
0.00774909
0.00765723
0.00753702
0.00739634
0.00724409
0.00709225
0.00695757
0.00682926
0.00673556
0.00712003
0.00706125
0.00704342
0.00705947
0.00712296
0.00723899
0.00738135
0.00754276
0.00770833
0.00786783
0.008009
0.00813943
0.00824047
0.00831032
0.00832953
0.00831843
0.00828457
0.00819861
0.00808081
0.00793998
0.007783
0.00762336
0.0074773
0.00733555
0.00722542
0.00762392
0.00754776
0.00751296
0.00752073
0.00756744
0.0076825
0.00782352
0.00798797
0.00815996
0.00832791
0.00848168
0.00862522
0.00874047
0.00882472
0.00885889
0.00885928
0.00883473
0.00875983
0.00864398
0.00850506
0.00834534
0.00817992
0.00802407
0.00787037
0.0077441
0.00815764
0.00806418
0.00801097
0.00800956
0.00803753
0.00814814
0.00828714
0.00845261
0.00862932
0.00880422
0.00896937
0.0091251
0.00925425
0.00935274
0.00940175
0.0094152
0.00939867
0.00933973
0.00922632
0.00909055
0.00893009
0.00876108
0.00859718
0.00843359
0.00829182
0.00872162
0.00861122
0.00853896
0.0085271
0.00853717
0.00863603
0.00877439
0.0089386
0.0091181
0.00929884
0.00947276
0.00963998
0.00978245
0.00989466
0.00995826
0.00998598
0.00997683
0.00993582
0.00982807
0.00969534
0.00953611
0.00936576
0.0091959
0.0090242
0.00886867
0.00931588
0.00918904
0.00909814
0.00907426
0.00906896
0.00914837
0.0092864
0.00944796
0.00962818
0.00981287
0.00999382
0.0101711
0.010326
0.0104511
0.0105286
0.0105713
0.0105696
0.0105457
0.0104491
0.0103191
0.0101622
0.00999273
0.00981916
0.00964044
0.00947493
0.00993998
0.00979731
0.00968932
0.00965204
0.00963313
0.00968914
0.00982399
0.00998281
0.0101615
0.0103481
0.0105349
0.0107189
0.010886
0.0110228
0.0111133
0.0111712
0.0111773
0.0111674
0.0110886
0.010962
0.0108071
0.0106407
0.0104656
0.0102821
0.0101088
0.0105933
0.0104362
0.0103128
0.0102611
0.0102298
0.0102618
0.0103878
0.010545
0.0107201
0.0109064
0.0110969
0.0112867
0.011463
0.0116107
0.0117132
0.0117857
0.0118004
0.0118022
0.0117437
0.0116236
0.0114702
0.0113083
0.0111337
0.0109478
0.010768
0.0112728
0.0111053
0.0109685
0.0109018
0.010859
0.0108695
0.0109793
0.0111349
0.0113058
0.0114899
0.0116816
0.0118769
0.0120576
0.0122161
0.0123292
0.012415
0.0124393
0.012451
0.012412
0.0123031
0.0121516
0.0119944
0.011822
0.0116358
0.0114521
0.0119749
0.0118049
0.0116554
0.0115739
0.0115204
0.0115136
0.0116004
0.0117526
0.0119206
0.0121002
0.0122909
0.0124898
0.012673
0.0128397
0.0129625
0.0130599
0.013094
0.0131149
0.0130913
0.0130001
0.0128514
0.0126978
0.0125289
0.0123445
0.01216
0.012699
0.0125313
0.0123732
0.0122764
0.0122132
0.0121925
0.0122542
0.0123997
0.012565
0.012739
0.0129267
0.0131264
0.0133124
0.0134818
0.0136143
0.013721
0.0137651
0.0137946
0.013783
0.0137124
0.0135681
0.0134188
0.0132527
0.0130721
0.0128899
0.0134446
0.0132814
0.0131193
0.0130089
0.0129363
0.0129046
0.0129423
0.0130776
0.0132386
0.0134078
0.0135904
0.0137885
0.0139768
0.014145
0.014285
0.014399
0.014453
0.0144909
0.0144886
0.014438
0.0143005
0.0141569
0.0139926
0.0138173
0.0136396
0.0142112
0.0140516
0.0138905
0.0137709
0.0136883
0.0136482
0.0136655
0.0137874
0.0139415
0.0141069
0.0142834
0.0144774
0.0146657
0.0148327
0.0149753
0.0150951
0.0151588
0.0152045
0.0152095
0.0151758
0.0150474
0.0149108
0.0147487
0.0145786
0.014407
0.0149975
0.0148389
0.0146846
0.0145608
0.0144673
0.0144211
0.0144234
0.0145287
0.0146744
0.0148351
0.0150064
0.0151941
0.0153798
0.0155469
0.0156865
0.0158087
0.0158836
0.0159356
0.0159466
0.0159251
0.0158082
0.0156794
0.015521
0.0153549
0.0151903
0.0158014
0.0156425
0.0154982
0.0153742
0.0152724
0.0152211
0.0152134
0.0153017
0.0154377
0.0155915
0.0157593
0.015939
0.0161199
0.0162865
0.0164211
0.0165417
0.0166268
0.0166845
0.0167003
0.0166871
0.0165817
0.0164615
0.0163084
0.016146
0.0159875
0.0166209
0.0164616
0.0163289
0.0162071
0.0161016
0.0160456
0.0160317
0.0161057
0.0162308
0.016376
0.0165405
0.0167117
0.0168863
0.0170501
0.0171812
0.0172957
0.0173872
0.0174515
0.0174714
0.017463
0.0173667
0.017256
0.0171093
0.016952
0.0167973
0.0174541
0.0172951
0.0171743
0.0170568
0.0169521
0.0168915
0.0168747
0.0169385
0.0170524
0.0171879
0.0173478
0.0175111
0.0176787
0.0178369
0.0179667
0.0180715
0.0181657
0.0182349
0.01826
0.0182529
0.0181632
0.0180623
0.0179226
0.0177717
0.0176192
0.0182992
0.018142
0.0180325
0.0179206
0.0178197
0.0177566
0.0177391
0.0177967
0.0179
0.0180253
0.018179
0.0183356
0.0184957
0.018646
0.0187754
0.0188697
0.0189633
0.0190337
0.0190649
0.0190559
0.0189718
0.01888
0.018747
0.0186033
0.0184528
0.0191542
0.0190008
0.0189014
0.0187961
0.0187009
0.0186383
0.0186215
0.0186762
0.0187702
0.0188858
0.0190321
0.019182
0.0193351
0.0194764
0.0196044
0.0196897
0.0197796
0.0198484
0.0198833
0.0198712
0.0197929
0.0197084
0.0195816
0.0194454
0.0192975
0.0200175
0.01987
0.0197791
0.0196809
0.0195927
0.0195334
0.0195193
0.0195717
0.0196589
0.0197659
0.0199045
0.020047
0.0201936
0.0203259
0.020451
0.0205294
0.0206133
0.0206784
0.0207128
0.0206982
0.020626
0.0205467
0.0204251
0.0202962
0.0201522
0.020887
0.0207478
0.0206632
0.0205726
0.0204921
0.0204383
0.0204284
0.0204796
0.0205619
0.0206616
0.0207926
0.0209269
0.0210675
0.0211916
0.0213118
0.0213849
0.0214622
0.0215222
0.0215532
0.0215348
0.0214697
0.0213933
0.021276
0.0211536
0.0210151
0.0217606
0.0216319
0.0215515
0.0214686
0.0213961
0.021349
0.0213447
0.0213956
0.0214744
0.0215685
0.021692
0.021818
0.0219527
0.0220698
0.0221833
0.0222516
0.0223229
0.0223774
0.0224025
0.0223808
0.0223206
0.022246
0.0221322
0.0220155
0.0218839
0.0226357
0.0225192
0.0224409
0.0223659
0.0223017
0.022262
0.0222637
0.0223154
0.0223917
0.0224815
0.0225977
0.022716
0.0228445
0.0229558
0.0230612
0.0231251
0.0231913
0.0232402
0.0232592
0.0232334
0.0231756
0.0231017
0.0229913
0.0228792
0.0227558
0.0235094
0.0234058
0.0233283
0.0232614
0.0232056
0.0231741
0.0231807
0.023234
0.0233084
0.0233956
0.023504
0.023616
0.0237379
0.0238442
0.0239407
0.024001
0.0240622
0.0241055
0.0241194
0.024089
0.0240312
0.0239569
0.02385
0.0237416
0.0236269
0.0243785
0.0242864
0.0242098
0.0241513
0.0241043
0.0240817
0.0240906
0.0241464
0.0242192
0.0243053
0.0244056
0.024512
0.0246273
0.0247287
0.0248166
0.0248739
0.02493
0.0249678
0.0249779
0.0249429
0.0248832
0.0248078
0.0247043
0.024599
0.0244925
0.025239
0.0251535
0.0250818
0.025032
0.0249939
0.0249791
0.0249888
0.025047
0.0251185
0.0252041
0.025297
0.0253977
0.0255067
0.0256026
0.0256833
0.0257377
0.0257885
0.0258207
0.0258277
0.0257894
0.0257266
0.0256501
0.0255489
0.0254467
0.0253474
0.0260853
0.0260042
0.0259383
0.0258967
0.0258686
0.0258604
0.0258701
0.02593
0.0260005
0.0260849
0.0261726
0.0262663
0.0263692
0.0264583
0.0265353
0.0265857
0.02663
0.0266569
0.0266603
0.0266224
0.0265554
0.0264784
0.0263783
0.0262793
0.0261858
0.0269109
0.0268333
0.0267731
0.0267392
0.0267204
0.0267188
0.0267292
0.0267884
0.0268582
0.0269406
0.0270241
0.0271114
0.027207
0.0272891
0.0273628
0.0274103
0.0274476
0.0274691
0.0274688
0.0274335
0.0273627
0.0272856
0.0271863
0.0270903
0.0270014
0.0277064
0.027634
0.0275807
0.027552
0.0275423
0.0275467
0.0275598
0.0276142
0.0276836
0.0277639
0.0278434
0.0279253
0.0280123
0.0280877
0.0281566
0.0282018
0.0282331
0.0282497
0.0282457
0.0282134
0.0281401
0.028064
0.0279654
0.0278721
0.0277877
0.0284622
0.0283978
0.0283522
0.0283277
0.0283263
0.0283357
0.028352
0.0284005
0.0284685
0.0285464
0.0286214
0.0286981
0.0287754
0.028845
0.0289087
0.0289513
0.0289773
0.0289895
0.0289824
0.0289522
0.0288792
0.0288047
0.0287072
0.0286169
0.0285368
0.029171
0.0291145
0.0290774
0.0290573
0.0290631
0.0290765
0.0290959
0.0291383
0.0292041
0.0292787
0.0293489
0.0294196
0.0294866
0.0295512
0.0296095
0.0296487
0.0296703
0.0296789
0.0296691
0.0296388
0.0295709
0.0294981
0.0294022
0.0293154
0.0292393
0.0298232
0.0297742
0.0297456
0.0297307
0.0297417
0.0297589
0.029781
0.0298176
0.0298804
0.0299506
0.0300156
0.0300783
0.0301366
0.0301953
0.0302481
0.0302836
0.0303015
0.0303071
0.0302955
0.0302649
0.0302033
0.0301331
0.0300399
0.0299574
0.0298853
0.030408
0.0303665
0.0303455
0.0303367
0.0303514
0.0303718
0.0303957
0.0304274
0.0304864
0.0305512
0.0306099
0.0306624
0.0307141
0.030766
0.0308136
0.0308447
0.0308597
0.0308632
0.0308504
0.0308201
0.0307647
0.0306984
0.0306092
0.0305315
0.0304638
0.030914
0.0308803
0.030866
0.0308635
0.0308807
0.0309037
0.0309277
0.0309565
0.0310103
0.0310684
0.0311185
0.0311607
0.0312066
0.0312517
0.0312943
0.0313207
0.0313336
0.0313355
0.0313224
0.0312931
0.0312429
0.031183
0.0310985
0.0310264
0.0309636
0.0313301
0.031304
0.0312954
0.0312992
0.0313179
0.031343
0.0313652
0.0313923
0.0314402
0.0314899
0.0315275
0.0315627
0.0316026
0.0316408
0.0316786
0.0317003
0.0317117
0.0317129
0.0317003
0.0316727
0.0316282
0.0315742
0.031496
0.0314302
0.0313731
0.0316454
0.0316267
0.0316232
0.0316327
0.0316521
0.0316784
0.0316974
0.0317232
0.0317644
0.0318018
0.0318282
0.0318569
0.031891
0.0319228
0.0319559
0.0319731
0.0319838
0.0319851
0.0319737
0.0319487
0.0319104
0.0318617
0.0317911
0.0317322
0.0316816
0.0318512
0.0318395
0.0318407
0.0318547
0.0318744
0.0319005
0.0319157
0.0319401
0.0319727
0.0319933
0.032013
0.0320356
0.0320635
0.0320894
0.0321176
0.0321315
0.0321422
0.0321444
0.0321349
0.0321131
0.0320798
0.0320376
0.031976
0.0319243
0.0318805
0.0319432
0.0319377
0.0319433
0.0319606
0.0319801
0.0320041
0.0320165
0.0320375
0.0320545
0.0320656
0.0320789
0.0320956
0.0321154
0.0321374
0.0321599
0.0321734
0.0321844
0.0321878
0.0321805
0.032162
0.0321336
0.032098
0.0320468
0.0320012
0.0319667
0.031925
0.0319246
0.0319342
0.0319532
0.0319724
0.0319928
0.0320019
0.0320154
0.0320206
0.0320245
0.0320304
0.032039
0.0320517
0.0320717
0.0320881
0.032105
0.0321173
0.0321196
0.0321132
0.032099
0.0320764
0.0320475
0.0320077
0.0319674
0.031943
0.031813
0.0318158
0.0318291
0.0318482
0.0318668
0.0318824
0.0318894
0.0318913
0.0318903
0.0318846
0.0318837
0.0318837
0.0318918
0.0319086
0.03192
0.0319396
0.0319557
0.0319596
0.0319541
0.0319444
0.0319279
0.0319052
0.0318749
0.03184
0.0318248
0.0316405
0.0316448
0.0316614
0.031679
0.0316973
0.031707
0.0317104
0.0317041
0.0316973
0.0316824
0.0316761
0.0316672
0.0316733
0.0316836
0.0316956
0.0317147
0.0317323
0.031745
0.031743
0.0317352
0.0317234
0.031705
0.0316824
0.031654
0.0316462
0.0314608
0.0314661
0.0314845
0.0314998
0.0315182
0.0315212
0.031521
0.0315101
0.0314985
0.0314759
0.0314656
0.0314496
0.0314541
0.0314596
0.0314725
0.0314922
0.0315112
0.0315282
0.0315329
0.031527
0.0315191
0.0315028
0.0314876
0.0314635
0.0314602
0.0313394
0.0313478
0.0313657
0.0313795
0.0313971
0.0313974
0.0313941
0.0313792
0.0313651
0.0313386
0.0313257
0.0313069
0.0313095
0.0313142
0.0313271
0.0313466
0.0313684
0.0313849
0.0313968
0.0313909
0.031385
0.0313695
0.0313594
0.031338
0.0313363
)
;

boundaryField
{
    rigidLid
    {
        type            zeroGradient;
    }
    bed
    {
        type            nutkRoughWallFunction;
        Cs              uniform 0.5;
        Ks              uniform 0.01;
        value           nonuniform List<scalar> 
25
(
2.93032e-05
2.85086e-05
2.77262e-05
2.70813e-05
2.66337e-05
2.63869e-05
2.63173e-05
2.64183e-05
2.66721e-05
2.70038e-05
2.74266e-05
2.79994e-05
2.86455e-05
2.92733e-05
2.98817e-05
3.05158e-05
3.09967e-05
3.13559e-05
3.15712e-05
3.16394e-05
3.15481e-05
3.13206e-05
3.10303e-05
3.0558e-05
3.00159e-05
)
;
    }
    inlet
    {
        type            cyclic;
    }
    outlet
    {
        type            cyclic;
    }
    frontAndBack
    {
        type            empty;
    }
}


// ************************************************************************* //
