/*--------------------------------*- C++ -*----------------------------------*\
| =========                 |                                                 |
| \\      /  F ield         | OpenFOAM: The Open Source CFD Toolbox           |
|  \\    /   O peration     | Version:  2206                                  |
|   \\  /    A nd           | Website:  www.openfoam.com                      |
|    \\/     M anipulation  |                                                 |
\*---------------------------------------------------------------------------*/
FoamFile
{
    version     2.0;
    format      ascii;
    arch        "LSB;label=32;scalar=64";
    class       volScalarField;
    location    "44";
    object      omega;
}
// * * * * * * * * * * * * * * * * * * * * * * * * * * * * * * * * * * * * * //

dimensions      [0 0 -1 0 0 0 0];

internalField   nonuniform List<scalar> 
1750
(
82.0647
78.7597
75.4468
72.5295
70.2457
68.6608
67.7442
67.4953
67.8759
68.698
70.0046
71.9623
74.3719
76.9588
79.6691
82.5704
85.1191
87.2887
88.9223
89.9258
90.2028
89.7914
88.8952
87.1785
84.9781
31.554
30.2753
29.0331
27.8407
26.915
26.2707
25.8971
25.7911
25.9328
26.2514
26.7522
27.5
28.4369
29.4541
30.5052
31.5859
32.6233
33.4853
34.1374
34.5436
34.6633
34.5107
34.1681
33.5233
32.6714
18.0212
17.2997
16.6105
15.9002
15.3383
14.9393
14.6977
14.6119
14.6736
14.8431
15.1153
15.5246
16.0524
16.6357
17.2391
17.8375
18.4593
18.9764
19.3717
19.6267
19.7172
19.6464
19.4634
19.1168
18.6412
12.2635
11.7825
11.3288
10.8311
10.4262
10.1299
9.94139
9.8592
9.88224
9.98321
10.1541
10.4151
10.7619
11.1547
11.5654
11.9616
12.4013
12.772
13.0606
13.2544
13.3372
13.3047
13.1934
12.9766
12.6666
9.15459
8.80639
8.48031
8.10235
7.78537
7.54557
7.38534
7.30363
7.30315
7.36451
7.47855
7.65714
7.90211
8.18862
8.4918
8.78096
9.11765
9.40775
9.63902
9.80086
9.88171
9.87256
9.80183
9.65644
9.43929
7.22658
6.96272
6.71617
6.41586
6.15631
5.9531
5.81103
5.72977
5.71303
5.74861
5.82619
5.95261
6.13228
6.35029
6.58307
6.80794
7.07678
7.31481
7.50994
7.65213
7.73252
7.73987
7.69539
7.59484
7.43726
5.91912
5.71371
5.52136
5.27612
5.05795
4.88123
4.75244
4.6721
4.64384
4.66129
4.71352
4.80415
4.93849
5.1081
5.28981
5.47325
5.6925
5.89311
6.06264
6.19111
6.27112
6.29115
6.26515
6.19527
6.079
4.97559
4.81316
4.6601
4.45639
4.27006
4.11403
3.99589
3.91702
3.88067
3.88469
3.91841
3.98317
4.08435
4.21771
4.36116
4.51406
4.69569
4.86736
5.01709
5.13492
5.21425
5.24411
5.23209
5.1844
5.09826
4.26284
4.13339
4.01012
3.83914
3.67845
3.53947
3.43046
3.35355
3.31174
3.30533
3.32521
3.3706
3.44666
3.55184
3.66583
3.79427
3.94633
4.09446
4.22784
4.3367
4.41486
4.45218
4.45138
4.42039
4.35702
3.70519
3.6019
3.502
3.35767
3.21833
3.09395
2.9931
2.91857
2.87327
2.85868
2.86796
2.89851
2.95509
3.03782
3.12868
3.2365
3.36466
3.49296
3.61217
3.71295
3.78939
3.8321
3.84073
3.82264
3.77693
3.25659
3.17459
3.09353
2.97145
2.85032
2.73877
2.64544
2.57365
2.52629
2.50543
2.50635
2.52538
2.56662
2.63118
2.70357
2.7936
2.90194
3.01313
3.11967
3.21285
3.287
3.33342
3.34983
3.34211
3.31038
2.88754
2.82314
2.75763
2.65447
2.54916
2.4491
2.36283
2.29407
2.24575
2.22027
2.21436
2.22442
2.25346
2.30318
2.36064
2.43513
2.52673
2.62292
2.7179
2.80374
2.87504
2.92378
2.94637
2.94729
2.92679
2.57828
2.52858
2.47613
2.3893
2.29792
2.20831
2.12874
2.06325
2.0148
1.98605
1.97465
1.97755
1.99685
2.0344
2.07967
2.14054
2.21782
2.30074
2.38503
2.4637
2.53163
2.58151
2.60875
2.61707
2.60566
2.31517
2.27776
2.23641
2.16385
2.08487
2.00486
1.9317
1.86966
1.82174
1.79078
1.77514
1.77216
1.78367
1.81122
1.84651
1.89543
1.96033
2.03146
2.10582
2.17744
2.24156
2.29157
2.32216
2.33659
2.33274
2.08841
2.06133
2.02943
1.96949
1.90161
1.83049
1.76349
1.70504
1.65818
1.62586
1.60706
1.59925
1.60446
1.62381
1.65091
1.68941
1.74355
1.80416
1.86931
1.93402
1.99395
2.0432
2.07601
2.09527
2.09787
1.89085
1.87247
1.84858
1.79987
1.742
1.67914
1.61809
1.56335
1.51796
1.48497
1.46388
1.45225
1.45226
1.46488
1.48525
1.51475
1.55948
1.61072
1.66735
1.72533
1.78078
1.82853
1.86259
1.88544
1.89351
1.71714
1.70609
1.68894
1.65028
1.60144
1.54627
1.49099
1.44002
1.39645
1.36335
1.34069
1.3262
1.32181
1.32893
1.34376
1.36559
1.40209
1.44499
1.49377
1.54523
1.59601
1.64163
1.67609
1.70147
1.71395
1.56311
1.55829
1.54677
1.51711
1.47643
1.42845
1.37873
1.3316
1.29012
1.25739
1.23374
1.21716
1.20918
1.21173
1.22195
1.2374
1.26666
1.30217
1.34376
1.389
1.43501
1.478
1.51212
1.53908
1.55495
1.42549
1.42609
1.41922
1.3976
1.36426
1.32299
1.27865
1.23538
1.19622
1.16424
1.14011
1.12208
1.11129
1.10998
1.11631
1.12661
1.1495
1.17847
1.21354
1.25289
1.29411
1.33408
1.36724
1.39496
1.41333
1.30174
1.30714
1.30411
1.28956
1.26283
1.22781
1.18864
1.14924
1.11257
1.08168
1.05749
1.03852
1.02567
1.02107
1.02404
1.03037
1.04764
1.07086
1.10004
1.13388
1.17039
1.20707
1.23876
1.26653
1.28659
1.18999
1.19942
1.19977
1.19123
1.17046
1.14125
1.10705
1.07149
1.03746
1.00793
0.984023
0.964565
0.950251
0.942985
0.943043
0.946248
0.958649
0.976853
1.00077
1.02951
1.06147
1.0947
1.12449
1.15171
1.17276
1.08879
1.10138
1.10489
1.1012
1.08584
1.06199
1.03254
1.00078
0.969482
0.941539
0.918231
0.898645
0.883371
0.874074
0.871549
0.872294
0.880557
0.894414
0.91366
0.937728
0.965367
0.995067
1.02265
1.04881
1.07024
0.996951
1.01186
1.01825
1.01842
1.00792
0.988971
0.964035
0.93601
0.907511
0.881344
0.858892
0.839487
0.823669
0.812889
0.808202
0.806905
0.811721
0.821844
0.836995
0.856829
0.880407
0.906606
0.931772
0.956472
0.977735
0.91349
0.929963
0.938738
0.94216
0.935856
0.921369
0.900669
0.876282
0.85062
0.826379
0.805003
0.786045
0.770029
0.758234
0.75181
0.7488
0.750775
0.757725
0.769311
0.785352
0.805171
0.827966
0.850591
0.873524
0.894173
0.837599
0.854953
0.8656
0.871731
0.86899
0.858509
0.841748
0.820872
0.798053
0.775849
0.755735
0.737449
0.721526
0.709111
0.701347
0.696929
0.696576
0.70086
0.70937
0.722052
0.738438
0.757986
0.778027
0.798979
0.818645
0.768589
0.786225
0.798239
0.806559
0.80678
0.799857
0.786721
0.769188
0.749187
0.729098
0.710395
0.692974
0.677387
0.664688
0.655946
0.650418
0.648142
0.650234
0.656115
0.665853
0.679145
0.695649
0.713135
0.731979
0.750371
0.705861
0.723273
0.736175
0.746176
0.748809
0.744987
0.735147
0.720756
0.703514
0.685582
0.668409
0.652011
0.636968
0.624265
0.614872
0.608493
0.604671
0.604986
0.60864
0.615825
0.626364
0.640063
0.655077
0.671764
0.688669
0.648887
0.66566
0.679014
0.690072
0.694874
0.693566
0.686674
0.675205
0.660616
0.644854
0.629297
0.614053
0.599724
0.587252
0.577501
0.570504
0.565464
0.564377
0.566166
0.571164
0.579281
0.590437
0.603107
0.617656
0.632933
0.597185
0.613
0.626419
0.637936
0.644726
0.645326
0.641031
0.632239
0.620165
0.60655
0.592661
0.578671
0.565197
0.553152
0.5433
0.535893
0.52998
0.527717
0.528019
0.531166
0.53718
0.546063
0.556554
0.569037
0.582614
0.550315
0.56494
0.578088
0.589624
0.598029
0.600087
0.598011
0.591628
0.581903
0.570373
0.558174
0.54551
0.533005
0.521543
0.511815
0.504178
0.49777
0.494396
0.493617
0.49522
0.499431
0.506312
0.514814
0.525346
0.537207
0.507866
0.521151
0.533745
0.544983
0.554475
0.557771
0.557457
0.5532
0.545634
0.536089
0.525571
0.514276
0.502824
0.492071
0.482658
0.474955
0.468371
0.463997
0.462418
0.462792
0.465482
0.470621
0.477339
0.486068
0.496246
0.46945
0.481318
0.493132
0.50385
0.513822
0.518336
0.519247
0.516829
0.51121
0.503523
0.494641
0.484728
0.474388
0.464441
0.455498
0.447879
0.441335
0.436209
0.433944
0.433416
0.434844
0.438492
0.443633
0.450727
0.459299
0.434701
0.445137
0.456002
0.466055
0.475956
0.481604
0.483347
0.482427
0.478526
0.472543
0.46522
0.456675
0.44748
0.438408
0.430056
0.422658
0.416299
0.410739
0.407814
0.406658
0.407085
0.409477
0.41325
0.418888
0.425963
0.403272
0.412307
0.422115
0.431401
0.440874
0.447344
0.449733
0.449932
0.44751
0.443056
0.437189
0.429967
0.421923
0.413769
0.406101
0.399044
0.392968
0.387298
0.383722
0.382129
0.381832
0.38318
0.385789
0.390151
0.395863
0.374835
0.382539
0.391237
0.399687
0.408513
0.415408
0.418365
0.41931
0.41812
0.415004
0.410465
0.404493
0.397582
0.390366
0.383439
0.376829
0.371097
0.365544
0.36148
0.359526
0.358734
0.359251
0.360891
0.364153
0.368649
0.349081
0.35555
0.363135
0.37071
0.378767
0.385671
0.389166
0.390583
0.390329
0.38835
0.384993
0.380178
0.374354
0.368071
0.361917
0.355837
0.350498
0.345206
0.340883
0.338605
0.337472
0.337379
0.338234
0.340564
0.343995
0.325715
0.331072
0.337577
0.344269
0.351501
0.358082
0.362029
0.363745
0.364118
0.363077
0.360741
0.356976
0.352164
0.346793
0.341415
0.335924
0.331017
0.326074
0.321744
0.319136
0.317783
0.317288
0.317532
0.319088
0.321606
0.304465
0.308845
0.314338
0.32016
0.326561
0.332627
0.336816
0.338733
0.339499
0.339179
0.337697
0.334857
0.330969
0.326462
0.321844
0.316978
0.312531
0.307984
0.303825
0.300975
0.299483
0.298712
0.298534
0.299456
0.301212
0.285082
0.288622
0.293194
0.298183
0.303779
0.309233
0.313434
0.315465
0.316486
0.316652
0.315857
0.313811
0.310746
0.307036
0.303139
0.29891
0.294939
0.290812
0.286933
0.283985
0.282407
0.281445
0.281004
0.281429
0.282568
0.267343
0.270173
0.273928
0.278144
0.282982
0.287789
0.291798
0.293872
0.295049
0.295502
0.295225
0.293836
0.291485
0.28849
0.285259
0.281657
0.278161
0.274464
0.270927
0.268029
0.266408
0.265331
0.264727
0.264796
0.265452
0.251043
0.253283
0.256331
0.259855
0.263991
0.268158
0.271817
0.273886
0.27512
0.275739
0.275799
0.274936
0.273186
0.270818
0.268181
0.265176
0.262135
0.25887
0.255707
0.252987
0.251355
0.250232
0.249525
0.249374
0.249666
0.236003
0.237759
0.240209
0.243134
0.246632
0.250193
0.253422
0.255408
0.25663
0.25734
0.257576
0.257116
0.25585
0.25402
0.251895
0.249439
0.24682
0.243985
0.241203
0.238737
0.237152
0.236032
0.235269
0.234991
0.235035
0.222058
0.223428
0.225382
0.227808
0.230733
0.23374
0.236523
0.238342
0.239502
0.240241
0.240558
0.240375
0.239483
0.238096
0.236402
0.234431
0.232198
0.229769
0.22736
0.225187
0.223714
0.222632
0.221855
0.221501
0.221409
0.209067
0.210136
0.211688
0.213702
0.216134
0.218648
0.221004
0.222596
0.223658
0.224377
0.224717
0.224701
0.224081
0.223046
0.221708
0.220147
0.218257
0.216201
0.214146
0.212278
0.210964
0.209947
0.20919
0.208802
0.208647
0.196906
0.197749
0.198984
0.200662
0.202683
0.204772
0.206736
0.208075
0.209015
0.209676
0.210009
0.210066
0.209637
0.208867
0.207813
0.206583
0.204996
0.203272
0.20154
0.199976
0.198833
0.197907
0.1972
0.19681
0.196637
0.185471
0.186152
0.187147
0.188553
0.190237
0.19197
0.193589
0.194678
0.195484
0.196062
0.196364
0.19644
0.19613
0.195547
0.194715
0.193736
0.192413
0.190977
0.189529
0.188255
0.187272
0.186457
0.18582
0.185455
0.185289
0.174677
0.175246
0.176066
0.177255
0.178669
0.180112
0.181426
0.18231
0.182973
0.183455
0.183707
0.183775
0.183527
0.183066
0.182401
0.181604
0.180508
0.179311
0.178107
0.177088
0.176255
0.175557
0.175004
0.174682
0.174535
0.164458
0.164954
0.165651
0.166669
0.16787
0.169081
0.170143
0.170856
0.171386
0.171768
0.171962
0.172007
0.171784
0.171396
0.170848
0.170185
0.169268
0.168267
0.167269
0.166456
0.165762
0.165178
0.164712
0.164444
0.164324
0.15476
0.15521
0.155827
0.156711
0.157745
0.158773
0.159639
0.160211
0.160625
0.160915
0.161052
0.161068
0.160846
0.160498
0.160027
0.159462
0.158683
0.157836
0.157008
0.156347
0.155778
0.155299
0.154918
0.154708
0.154615
0.145545
0.145965
0.146531
0.147309
0.148214
0.149102
0.149821
0.150282
0.1506
0.150811
0.150898
0.150881
0.150651
0.150323
0.149899
0.149408
0.148733
0.148004
0.147305
0.146759
0.146294
0.145906
0.145601
0.145446
0.14538
0.136781
0.137181
0.137715
0.13841
0.139213
0.139992
0.14061
0.140984
0.141228
0.141375
0.141426
0.141375
0.141135
0.140819
0.140422
0.139985
0.139389
0.13875
0.138144
0.137684
0.137301
0.136987
0.136746
0.136639
0.136596
0.128447
0.128831
0.129341
0.129969
0.130691
0.131386
0.131934
0.132244
0.132434
0.132534
0.132558
0.13248
0.132234
0.131927
0.131548
0.131152
0.130617
0.130047
0.129505
0.129109
0.128786
0.128528
0.128338
0.12827
0.128246
0.120524
0.120893
0.121381
0.121955
0.122609
0.123235
0.123736
0.124001
0.124152
0.12422
0.124229
0.124133
0.123886
0.123591
0.123227
0.122863
0.122378
0.121864
0.121369
0.121015
0.120735
0.120518
0.120366
0.120326
0.120315
0.112999
0.113349
0.11381
0.114345
0.114935
0.115502
0.115969
0.116203
0.116331
0.11638
0.116378
0.116275
0.116036
0.115755
0.115411
0.115068
0.114631
0.114165
0.113713
0.113377
0.113129
0.11294
0.112814
0.112792
0.112789
0.105856
0.106185
0.106614
0.107115
0.107645
0.108158
0.108594
0.108812
0.108925
0.108964
0.108957
0.108855
0.108632
0.108368
0.10805
0.107727
0.107334
0.106912
0.106499
0.106171
0.105947
0.105777
0.105667
0.105654
0.105656
0.0990842
0.0993883
0.0997792
0.100247
0.100721
0.101184
0.101582
0.101799
0.101901
0.101935
0.101928
0.101832
0.10163
0.101387
0.1011
0.100798
0.100448
0.100068
0.0996925
0.0993738
0.0991644
0.0990067
0.0989058
0.0988955
0.0988983
0.0926675
0.0929443
0.0932945
0.0937255
0.0941472
0.0945621
0.0949218
0.095137
0.0952302
0.095262
0.0952582
0.0951722
0.0949947
0.0947762
0.0945222
0.094247
0.0939362
0.0935969
0.0932592
0.0929567
0.092756
0.0926073
0.0925117
0.0925001
0.0925009
0.0865918
0.0868391
0.0871485
0.0875385
0.0879109
0.0882789
0.0885998
0.0888073
0.0888933
0.0889235
0.0889235
0.0888492
0.0886972
0.0885054
0.0882858
0.0880408
0.0877689
0.0874698
0.0871696
0.0868944
0.0866943
0.0865554
0.086464
0.0864489
0.0864468
0.0808427
0.0810591
0.0813296
0.081675
0.0820026
0.0823232
0.0826046
0.0827977
0.0828758
0.0829046
0.0829066
0.0828446
0.082717
0.0825529
0.0823668
0.0821551
0.0819208
0.0816615
0.081399
0.0811547
0.080961
0.0808311
0.0807433
0.0807243
0.0807193
0.0754068
0.0755922
0.0758266
0.0761259
0.0764121
0.0766862
0.076928
0.0771005
0.0771689
0.0771949
0.0771976
0.0771466
0.0770409
0.0769041
0.0767493
0.0765721
0.0763739
0.0761535
0.0759284
0.0757164
0.0755372
0.0754162
0.0753328
0.0753105
0.075303
0.0702732
0.070429
0.0706304
0.0708847
0.0711312
0.0713614
0.0715646
0.0717117
0.0717685
0.0717898
0.071792
0.0717496
0.0716625
0.0715514
0.071425
0.0712817
0.0711178
0.0709347
0.0707462
0.0705665
0.0704104
0.0702956
0.0702192
0.0701955
0.0701863
0.065436
0.065565
0.0657362
0.0659486
0.066157
0.0663464
0.0665129
0.0666317
0.0666754
0.0666906
0.0666907
0.0666544
0.0665826
0.0664945
0.0663935
0.0662822
0.0661501
0.0660022
0.0658488
0.0657006
0.0655694
0.0654655
0.0653969
0.0653734
0.0653633
0.0608969
0.0610023
0.0611461
0.0613205
0.0614929
0.0616449
0.0617771
0.0618667
0.0618966
0.0619058
0.0619011
0.0618686
0.0618095
0.0617411
0.0616628
0.0615806
0.0614776
0.0613624
0.0612418
0.0611237
0.0610173
0.060928
0.0608682
0.0608463
0.0608362
0.056668
0.0567533
0.0568722
0.0570127
0.0571519
0.05727
0.0573706
0.0574317
0.0574484
0.0574513
0.0574402
0.0574096
0.0573612
0.0573091
0.0572515
0.0571943
0.0571179
0.0570326
0.0569424
0.0568525
0.0567697
0.0566966
0.0566462
0.0566269
0.0566175
0.0527754
0.0528436
0.0529403
0.0530511
0.0531601
0.0532478
0.0533199
0.0533547
0.0533605
0.0533546
0.0533373
0.0533072
0.0532682
0.053229
0.0531914
0.0531531
0.053102
0.0530445
0.0529821
0.0529179
0.0528566
0.0527996
0.0527582
0.052742
0.0527339
0.0492636
0.0493175
0.0493944
0.0494793
0.0495616
0.0496227
0.0496694
0.0496824
0.0496781
0.049662
0.0496389
0.049609
0.0495781
0.0495498
0.0495297
0.0495078
0.0494794
0.0494469
0.0494098
0.0493677
0.0493249
0.049283
0.0492491
0.0492363
0.04923
0.0462004
0.0462425
0.0463022
0.0463655
0.0464243
0.0464634
0.0464857
0.046486
0.0464691
0.0464441
0.0464154
0.0463862
0.046361
0.0463431
0.0463366
0.0463304
0.0463248
0.046314
0.0462956
0.0462703
0.0462423
0.0462138
0.0461877
0.0461781
0.0461737
0.0436825
0.0437151
0.0437609
0.0438064
0.0438461
0.0438678
0.0438719
0.0438595
0.0438324
0.0438003
0.0437666
0.0437385
0.0437164
0.0437094
0.0437112
0.0437202
0.0437322
0.04374
0.0437371
0.0437255
0.043709
0.0436911
0.0436731
0.0436636
0.0436617
0.0418388
0.0418643
0.0418999
0.041932
0.0419588
0.0419653
0.0419588
0.0419362
0.0419017
0.0418639
0.0418265
0.0417982
0.041779
0.0417791
0.0417878
0.0418065
0.0418311
0.0418512
0.0418653
0.0418634
0.0418553
0.0418449
0.0418317
0.041823
0.041825
0.0408304
0.0408495
0.0408785
0.0409038
0.0409225
0.0409217
0.0409085
0.0408802
0.0408417
0.0408007
0.0407631
0.0407346
0.040721
0.0407228
0.0407377
0.0407616
0.0407936
0.0408188
0.0408412
0.040846
0.0408417
0.0408346
0.0408218
0.0408146
0.0408188
)
;

boundaryField
{
    rigidLid
    {
        type            zeroGradient;
    }
    bed
    {
        type            omegaWallFunction;
        blending        binomial;
        n               2;
        value           nonuniform List<scalar> 
25
(
82.0647
78.7597
75.4468
72.5295
70.2457
68.6608
67.7442
67.4953
67.8759
68.698
70.0046
71.9623
74.3719
76.9588
79.6691
82.5704
85.1191
87.2887
88.9223
89.9258
90.2028
89.7914
88.8952
87.1785
84.9781
)
;
    }
    inlet
    {
        type            cyclic;
    }
    outlet
    {
        type            cyclic;
    }
    frontAndBack
    {
        type            empty;
    }
}


// ************************************************************************* //
