/*--------------------------------*- C++ -*----------------------------------*\
| =========                 |                                                 |
| \\      /  F ield         | OpenFOAM: The Open Source CFD Toolbox           |
|  \\    /   O peration     | Version:  2206                                  |
|   \\  /    A nd           | Website:  www.openfoam.com                      |
|    \\/     M anipulation  |                                                 |
\*---------------------------------------------------------------------------*/
FoamFile
{
    version     2.0;
    format      ascii;
    arch        "LSB;label=32;scalar=64";
    class       volScalarField;
    location    "44";
    object      p;
}
// * * * * * * * * * * * * * * * * * * * * * * * * * * * * * * * * * * * * * //

dimensions      [0 2 -2 0 0 0 0];

internalField   nonuniform List<scalar> 
1750
(
-1.97934e-11
0.00902135
0.0163077
0.0251169
0.0328562
0.0392382
0.0441263
0.0474689
0.0491263
0.0492925
0.0483926
0.0456456
0.0408976
0.0350123
0.0283942
0.0211772
0.0132827
0.00574699
-0.000739627
-0.00601411
-0.00945644
-0.0109934
-0.0107479
-0.00941726
-0.00464892
1.60731e-06
0.00902148
0.0163074
0.0251157
0.0328545
0.0392363
0.0441244
0.0474669
0.0491243
0.0492904
0.0483902
0.0456428
0.040895
0.0350099
0.0283921
0.0211754
0.0132817
0.00574698
-0.000738792
-0.00601249
-0.00945432
-0.0109912
-0.0107455
-0.00941478
-0.00464696
5.37422e-06
0.00902271
0.0163078
0.0251144
0.0328521
0.0392333
0.044121
0.0474631
0.0491206
0.0492865
0.0483856
0.045638
0.0408907
0.0350062
0.028389
0.0211731
0.0132809
0.00574786
-0.000736556
-0.00600903
-0.00945012
-0.0109868
-0.0107409
-0.0094099
-0.00464288
1.07921e-05
0.00902485
0.016309
0.0251133
0.0328493
0.0392296
0.0441165
0.0474582
0.0491155
0.0492813
0.0483797
0.0456318
0.0408853
0.0350019
0.0283855
0.0211707
0.0132806
0.00574961
-0.000733147
-0.00600414
-0.00944437
-0.0109809
-0.0107347
-0.00940327
-0.00463722
1.75361e-05
0.00902765
0.0163107
0.0251122
0.0328461
0.0392251
0.0441112
0.0474523
0.0491094
0.0492749
0.0483724
0.0456244
0.0408789
0.0349968
0.0283816
0.0211681
0.0132804
0.00575199
-0.000728788
-0.00599805
-0.00943728
-0.0109737
-0.0107271
-0.00939514
-0.00463026
2.5561e-05
0.00903103
0.0163127
0.0251111
0.0328425
0.03922
0.044105
0.0474452
0.0491021
0.0492674
0.0483639
0.0456157
0.0408714
0.034991
0.0283771
0.0211652
0.0132804
0.00575496
-0.000723526
-0.00599078
-0.00942887
-0.0109652
-0.0107181
-0.00938554
-0.00462204
3.48878e-05
0.009035
0.0163152
0.0251099
0.0328385
0.0392142
0.0440979
0.0474372
0.0490938
0.0492588
0.0483542
0.0456057
0.0408629
0.0349843
0.0283721
0.0211621
0.0132806
0.0057585
-0.000717355
-0.00598233
-0.00941912
-0.0109553
-0.0107078
-0.00937444
-0.00461253
4.55376e-05
0.00903957
0.0163181
0.0251086
0.032834
0.0392077
0.0440899
0.0474281
0.0490843
0.049249
0.0483431
0.0455944
0.0408533
0.0349768
0.0283665
0.0211586
0.0132809
0.00576263
-0.000710266
-0.00597267
-0.00940801
-0.010944
-0.010696
-0.00936181
-0.00460172
5.75374e-05
0.00904474
0.0163214
0.0251073
0.0328291
0.0392004
0.044081
0.047418
0.0490737
0.049238
0.0483307
0.0455818
0.0408426
0.0349685
0.0283603
0.0211549
0.0132813
0.00576733
-0.000702248
-0.00596178
-0.00939552
-0.0109313
-0.0106827
-0.00934762
-0.00458958
7.09267e-05
0.00905052
0.0163252
0.0251059
0.0328237
0.0391924
0.0440711
0.0474067
0.049062
0.0492259
0.048317
0.0455678
0.0408308
0.0349593
0.0283534
0.0211508
0.0132819
0.00577261
-0.000693281
-0.00594962
-0.00938159
-0.0109172
-0.0106679
-0.0093318
-0.00457606
8.57572e-05
0.00905693
0.0163294
0.0251043
0.0328177
0.0391836
0.0440603
0.0473943
0.0490491
0.0492124
0.0483018
0.0455524
0.0408177
0.0349492
0.0283459
0.0211463
0.0132826
0.00577849
-0.000683341
-0.00593617
-0.00936617
-0.0109015
-0.0106516
-0.00931428
-0.00456112
0.000102091
0.009064
0.016334
0.0251026
0.0328112
0.039174
0.0440484
0.0473808
0.0490349
0.0491977
0.0482852
0.0455356
0.0408034
0.0349381
0.0283377
0.0211415
0.0132834
0.00578497
-0.000672395
-0.00592136
-0.00934921
-0.0108843
-0.0106336
-0.00929499
-0.00454469
0.000120001
0.00907175
0.0163391
0.0251007
0.0328041
0.0391635
0.0440355
0.047366
0.0490195
0.0491817
0.0482671
0.0455172
0.0407879
0.0349261
0.0283288
0.0211362
0.0132843
0.00579209
-0.000660407
-0.00590514
-0.00933063
-0.0108654
-0.0106138
-0.00927384
-0.0045267
0.000139563
0.0090802
0.0163447
0.0250987
0.0327964
0.0391521
0.0440214
0.04735
0.0490027
0.0491642
0.0482475
0.0454973
0.040771
0.034913
0.0283191
0.0211306
0.0132854
0.00579985
-0.000647338
-0.00588746
-0.00931037
-0.0108447
-0.0105923
-0.00925073
-0.00450707
0.000160863
0.0090894
0.0163508
0.0250964
0.0327879
0.0391397
0.044006
0.0473325
0.0489845
0.0491453
0.0482262
0.0454757
0.0407528
0.0348988
0.0283086
0.0211245
0.0132866
0.0058083
-0.000633139
-0.00586824
-0.00928834
-0.0108223
-0.0105688
-0.00922556
-0.00448572
0.000183995
0.00909938
0.0163574
0.0250938
0.0327787
0.0391261
0.0439894
0.0473136
0.0489648
0.0491248
0.0482032
0.0454525
0.0407331
0.0348835
0.0282973
0.0211179
0.0132879
0.00581746
-0.000617759
-0.00584742
-0.00926446
-0.0107979
-0.0105433
-0.00919821
-0.00446256
0.000209057
0.00911016
0.0163645
0.0250909
0.0327687
0.0391114
0.0439714
0.0472932
0.0489435
0.0491028
0.0481784
0.0454275
0.0407119
0.0348671
0.0282852
0.0211109
0.0132894
0.00582737
-0.00060114
-0.00582492
-0.00923864
-0.0107715
-0.0105158
-0.00916857
-0.0044375
0.000236157
0.00912179
0.0163722
0.0250877
0.0327577
0.0390955
0.0439519
0.0472711
0.0489205
0.049079
0.0481517
0.0454006
0.0406893
0.0348494
0.0282722
0.0211035
0.013291
0.00583808
-0.000583216
-0.00580066
-0.00921078
-0.010743
-0.010486
-0.00913652
-0.00441042
0.000265406
0.00913429
0.0163804
0.0250841
0.0327458
0.0390782
0.0439308
0.0472473
0.0488958
0.0490534
0.0481231
0.0453718
0.040665
0.0348305
0.0282583
0.0210956
0.0132929
0.00584965
-0.000563915
-0.00577453
-0.00918077
-0.0107122
-0.0104538
-0.00910192
-0.00438124
0.000296923
0.00914771
0.0163892
0.0250801
0.0327329
0.0390594
0.043908
0.0472216
0.0488692
0.0490259
0.0480924
0.045341
0.0406391
0.0348104
0.0282435
0.0210872
0.013295
0.00586213
-0.000543155
-0.00574645
-0.00914852
-0.0106791
-0.0104192
-0.00906464
-0.00434982
0.000330828
0.00916209
0.0163987
0.0250756
0.0327187
0.039039
0.0438833
0.0471939
0.0488405
0.0489964
0.0480595
0.0453081
0.0406114
0.0347889
0.0282278
0.0210785
0.0132975
0.00587559
-0.000520849
-0.00571631
-0.00911389
-0.0106436
-0.010382
-0.00902454
-0.00431607
0.000367246
0.00917749
0.0164088
0.0250706
0.0327034
0.039017
0.0438567
0.047164
0.0488097
0.0489648
0.0480243
0.045273
0.040582
0.034766
0.0282111
0.0210692
0.0133002
0.00589011
-0.000496898
-0.00568398
-0.00907676
-0.0106054
-0.0103421
-0.00898145
-0.00427985
0.000406312
0.00919394
0.0164195
0.0250651
0.0326867
0.0389931
0.0438279
0.0471319
0.0487766
0.0489308
0.0479866
0.0452355
0.0405507
0.0347418
0.0281934
0.0210595
0.0133033
0.00590578
-0.000471192
-0.00564935
-0.009037
-0.0105646
-0.0102994
-0.00893524
-0.00424104
0.000448162
0.00921149
0.016431
0.025059
0.0326686
0.0389672
0.0437969
0.0470973
0.0487411
0.0488944
0.0479464
0.0451956
0.0405175
0.0347162
0.0281747
0.0210494
0.0133069
0.00592269
-0.000443614
-0.00561227
-0.00899445
-0.0105208
-0.0102536
-0.00888572
-0.0041995
0.000492939
0.00923019
0.0164432
0.0250522
0.032649
0.0389393
0.0437634
0.04706
0.0487029
0.0488555
0.0479033
0.045153
0.0404822
0.0346891
0.028155
0.0210389
0.013311
0.00594093
-0.000414035
-0.0055726
-0.00894897
-0.0104739
-0.0102046
-0.00883274
-0.0041551
0.00054079
0.0092501
0.0164561
0.0250448
0.0326277
0.038909
0.0437272
0.0470199
0.0486619
0.0488137
0.0478574
0.0451077
0.0404448
0.0346604
0.0281343
0.021028
0.0133156
0.0059606
-0.000382323
-0.00553018
-0.00890038
-0.0104239
-0.0101523
-0.00877612
-0.0041077
0.000591868
0.00927127
0.0164698
0.0250366
0.0326047
0.0388763
0.0436882
0.0469768
0.0486178
0.048769
0.0478084
0.0450595
0.040405
0.0346301
0.0281125
0.0210167
0.0133208
0.00598183
-0.000348334
-0.00548484
-0.0088485
-0.0103705
-0.0100965
-0.00871566
-0.00405715
0.000646327
0.00929376
0.0164843
0.0250276
0.0325797
0.0388411
0.0436462
0.0469303
0.0485706
0.0487211
0.047756
0.0450082
0.0403629
0.0345981
0.0280897
0.021005
0.0133268
0.00600471
-0.000311915
-0.00543641
-0.00879316
-0.0103134
-0.010037
-0.00865119
-0.00400331
0.000704326
0.00931761
0.0164997
0.0250177
0.0325528
0.0388031
0.0436009
0.0468805
0.0485198
0.0486698
0.0477001
0.0449536
0.0403183
0.0345643
0.0280658
0.020993
0.0133335
0.00602938
-0.000272909
-0.0053847
-0.00873414
-0.0102526
-0.00997356
-0.00858249
-0.00394602
0.000766029
0.00934289
0.0165159
0.0250069
0.0325237
0.0387621
0.0435522
0.0468268
0.0484654
0.0486149
0.0476405
0.0448956
0.0402709
0.0345286
0.0280407
0.0209806
0.0133411
0.00605593
-0.000231156
-0.00532951
-0.00867125
-0.0101878
-0.00990608
-0.00850937
-0.00388513
0.000831598
0.00936966
0.016533
0.0249951
0.0324924
0.038718
0.0434998
0.0467693
0.0484069
0.0485562
0.0475769
0.0448339
0.0402207
0.034491
0.0280145
0.020968
0.0133496
0.00608452
-0.000186497
-0.00527064
-0.00860427
-0.0101188
-0.00983429
-0.0084316
-0.00382048
0.000901202
0.00939798
0.016551
0.0249823
0.0324587
0.0386706
0.0434436
0.0467075
0.0483443
0.0484933
0.0475091
0.0447683
0.0401675
0.0344512
0.027987
0.020955
0.0133591
0.00611529
-0.000138772
-0.0052079
-0.00853298
-0.0100454
-0.00975799
-0.00834898
-0.0037519
0.000975005
0.00942789
0.0165701
0.0249683
0.0324225
0.0386196
0.0433832
0.0466412
0.0482771
0.048426
0.0474368
0.0446986
0.0401111
0.0344093
0.0279583
0.0209417
0.0133698
0.00614841
-8.78046e-05
-0.00514108
-0.00845715
-0.00996721
-0.00967696
-0.00826126
-0.00367921
0.00105317
0.00945947
0.0165901
0.0249532
0.0323836
0.038565
0.0433185
0.0465701
0.0482052
0.0483541
0.0473598
0.0446246
0.0400514
0.034365
0.0279282
0.0209281
0.0133815
0.00618403
-3.3401e-05
-0.00506997
-0.00837654
-0.00988415
-0.00959096
-0.00816821
-0.00360226
0.00113587
0.00949279
0.0166111
0.0249368
0.032342
0.0385064
0.0432491
0.0464941
0.0481282
0.0482772
0.0472777
0.0445459
0.0399881
0.0343182
0.0278967
0.0209142
0.0133945
0.00622226
2.46491e-05
-0.00499437
-0.00829093
-0.00979591
-0.00949976
-0.00806959
-0.00352086
0.00122326
0.00952791
0.0166331
0.0249191
0.0322975
0.0384438
0.043175
0.0464128
0.0480459
0.048195
0.0471902
0.0444624
0.039921
0.0342688
0.0278636
0.0209
0.0134087
0.00626323
8.65552e-05
-0.00491405
-0.00820008
-0.00970224
-0.00940313
-0.00796516
-0.00343484
0.00131549
0.00956494
0.0166563
0.0249001
0.03225
0.0383769
0.0430957
0.046326
0.0479579
0.0481074
0.0470972
0.0443737
0.0398499
0.0342166
0.027829
0.0208854
0.0134242
0.00630704
0.000152512
-0.00482877
-0.00810377
-0.00960289
-0.00930082
-0.00785467
-0.00334404
0.00141273
0.00960392
0.0166805
0.0248796
0.0321993
0.0383055
0.0430111
0.0462334
0.0478641
0.0480139
0.0469984
0.0442797
0.0397746
0.0341615
0.0277928
0.0208706
0.0134412
0.0063538
0.000222693
-0.00473831
-0.00800175
-0.00949762
-0.0091926
-0.00773788
-0.00324827
0.00151515
0.00964493
0.0167058
0.0248576
0.0321454
0.0382294
0.042921
0.0461348
0.047764
0.0479143
0.0468933
0.0441801
0.0396949
0.0341033
0.0277548
0.0208554
0.0134595
0.00640361
0.000297251
-0.00464242
-0.00789379
-0.00938617
-0.00907823
-0.00761455
-0.00314738
0.00162292
0.00968803
0.0167322
0.0248341
0.0320881
0.0381486
0.0428251
0.0460298
0.0476575
0.0478083
0.0467819
0.0440746
0.0396106
0.0340418
0.0277149
0.0208398
0.0134794
0.00645658
0.000376333
-0.00454089
-0.00777964
-0.0092683
-0.00895748
-0.00748443
-0.0030412
0.00173616
0.00973326
0.0167597
0.024809
0.0320274
0.0380627
0.0427232
0.0459183
0.0475443
0.0476957
0.0466637
0.043963
0.0395215
0.0339769
0.0276732
0.020824
0.0135008
0.00651283
0.000460081
-0.00443352
-0.00765907
-0.00914375
-0.00883014
-0.0073473
-0.00292956
0.001855
0.00978073
0.0167884
0.0247822
0.0319631
0.0379718
0.0426152
0.0458
0.0474241
0.0475763
0.0465387
0.0438451
0.0394275
0.0339085
0.0276294
0.0208077
0.0135239
0.00657245
0.000548627
-0.00432015
-0.00753186
-0.00901229
-0.00869598
-0.00720296
-0.00281231
0.00197955
0.00983049
0.0168182
0.0247538
0.0318952
0.0378757
0.0425008
0.0456747
0.0472967
0.0474497
0.0464065
0.0437207
0.0393282
0.0338363
0.0275834
0.020791
0.0135486
0.00663555
0.000642096
-0.00420062
-0.00739783
-0.0088737
-0.00855482
-0.0070512
-0.00268931
0.00210988
0.00988263
0.0168492
0.0247237
0.0318235
0.0377742
0.04238
0.0455423
0.0471619
0.0473158
0.0462671
0.0435897
0.0392237
0.0337605
0.0275353
0.020774
0.013575
0.00670223
0.000740608
-0.00407479
-0.00725679
-0.00872776
-0.00840645
-0.00689187
-0.00256043
0.00224607
0.00993721
0.0168814
0.0246918
0.0317481
0.0376672
0.0422526
0.0454025
0.0470195
0.0471744
0.0461203
0.0434519
0.0391138
0.0336808
0.027485
0.0207564
0.0136031
0.00677256
0.000844272
-0.00394254
-0.00710861
-0.00857429
-0.00825074
-0.00672482
-0.00242558
0.00238813
0.00999431
0.0169146
0.0246582
0.0316688
0.0375548
0.0421185
0.0452553
0.0468694
0.0470254
0.0459659
0.0433072
0.0389984
0.0335971
0.0274326
0.0207385
0.013633
0.00684659
0.00095318
-0.00380378
-0.00695317
-0.00841317
-0.00808755
-0.00654993
-0.00228466
0.00253606
0.010054
0.016949
0.0246228
0.0315857
0.0374368
0.0419776
0.0451006
0.0467114
0.0468685
0.0458039
0.0431557
0.0388775
0.0335096
0.0273779
0.0207202
0.0136647
0.00692434
0.00106739
-0.00365844
-0.00679041
-0.00824428
-0.0079168
-0.00636716
-0.00213763
0.0026898
0.0101162
0.0169844
0.0245858
0.0314987
0.0373133
0.04183
0.0449383
0.0465454
0.0467038
0.0456342
0.0429972
0.038751
0.033418
0.027321
0.0207015
0.0136981
0.00700583
0.00118691
-0.00350649
-0.00662028
-0.00806757
-0.00773846
-0.00617647
-0.00198449
0.00284924
0.0101811
0.0170208
0.0245471
0.0314079
0.0371842
0.0416755
0.0447684
0.0463716
0.0465312
0.045457
0.0428319
0.038619
0.0333225
0.027262
0.0206826
0.0137333
0.00709104
0.00131172
-0.00334794
-0.0064428
-0.00788304
-0.00755254
-0.00597792
-0.00182526
0.0030142
0.0102487
0.017058
0.0245067
0.0313133
0.0370497
0.0415144
0.0445911
0.0461899
0.0463509
0.0452722
0.0426599
0.0384816
0.0332231
0.027201
0.0206634
0.0137704
0.00717995
0.00144177
-0.0031829
-0.00625807
-0.00769075
-0.00735913
-0.00577163
-0.00166004
0.00318445
0.0103189
0.0170961
0.0244648
0.0312149
0.0369098
0.0413466
0.0444064
0.0460004
0.0461628
0.04508
0.0424812
0.0383389
0.0331199
0.0271379
0.0206442
0.0138093
0.00727251
0.00157694
-0.0030115
-0.00606624
-0.00749085
-0.00715839
-0.00555781
-0.00148898
0.00335964
0.0103916
0.0171347
0.0244214
0.031113
0.0367647
0.0411725
0.0442146
0.0458034
0.0459672
0.0448808
0.0422963
0.0381911
0.0330132
0.0270731
0.0206249
0.01385
0.00736863
0.0017171
-0.00283397
-0.00586756
-0.00728356
-0.00695057
-0.00533678
-0.00131229
0.00353936
0.0104669
0.0171739
0.0243767
0.0310077
0.0366147
0.0409921
0.0440159
0.0455991
0.0457645
0.0446748
0.0421053
0.0380385
0.032903
0.0270065
0.0206057
0.0138924
0.00746818
0.00186202
-0.00265061
-0.00566238
-0.00706924
-0.00673603
-0.00510896
-0.00113029
0.00372307
0.0105445
0.0172134
0.0243306
0.0308991
0.03646
0.040806
0.0438107
0.0453879
0.0455549
0.0444626
0.0419089
0.0378814
0.0327897
0.0269384
0.0205866
0.0139366
0.00757098
0.00201142
-0.00246181
-0.00545114
-0.00684833
-0.00651525
-0.00487492
-0.000943367
0.00391013
0.0106243
0.0172531
0.0242835
0.0307877
0.0363011
0.0406147
0.0435996
0.0451705
0.0453391
0.0442446
0.0417075
0.0377203
0.0326737
0.026869
0.0205679
0.0139825
0.00767676
0.00216492
-0.00226808
-0.00523442
-0.00662145
-0.00628883
-0.00463537
-0.000752037
0.00409975
0.0107062
0.0172926
0.0242355
0.0306736
0.0361385
0.0404186
0.0433833
0.0449474
0.0451177
0.0440218
0.0415018
0.0375557
0.0325553
0.0267986
0.0205495
0.0140299
0.0077852
0.00232203
-0.00207005
-0.00501294
-0.00638934
-0.00605754
-0.0043912
-0.000556937
0.00429101
0.0107898
0.0173318
0.0241867
0.0305575
0.0359729
0.0402187
0.0431625
0.0447197
0.0448917
0.0437949
0.0412926
0.0373884
0.032435
0.0267276
0.0205316
0.0140786
0.00789589
0.00248214
-0.0018685
-0.00478759
-0.00615296
-0.00582233
-0.00414346
-0.000358858
0.00448286
0.0108747
0.0173703
0.0241374
0.0304397
0.035805
0.0400159
0.0429385
0.0444883
0.0446621
0.0435652
0.0410812
0.0372192
0.0323135
0.0266563
0.0205144
0.0141286
0.00800833
0.00264448
-0.00166439
-0.00455942
-0.00591344
-0.00558433
-0.00389344
-0.000158759
0.00467407
0.0109604
0.0174079
0.0240879
0.030321
0.0356358
0.0398114
0.0427124
0.0442546
0.0444303
0.0433339
0.0408686
0.037049
0.0321915
0.0265851
0.020498
0.0141794
0.00812189
0.00280813
-0.00145889
-0.00432975
-0.00567217
-0.00534491
-0.00364264
4.2213e-05
0.00486324
0.0110465
0.0174441
0.0240385
0.0302022
0.0354664
0.0396065
0.0424859
0.0440203
0.0441979
0.0431027
0.0406563
0.036879
0.0320699
0.0265146
0.0204824
0.0142308
0.0082358
0.002972
-0.00125341
-0.00410013
-0.00543081
-0.00510571
-0.00339283
0.000242697
0.00504879
0.0111321
0.0174786
0.0239895
0.0300841
0.0352982
0.039403
0.0422609
0.0437874
0.0439669
0.0428736
0.0404463
0.0367108
0.0319497
0.0264453
0.020468
0.0142823
0.00834914
0.00313473
-0.00104963
-0.00387242
-0.00519136
-0.00486867
-0.00314608
0.00044108
0.00522891
0.0112163
0.0175111
0.0239414
0.0299679
0.0351329
0.0392029
0.0420394
0.043558
0.0437394
0.0426487
0.0402405
0.036546
0.0318322
0.026378
0.0204547
0.0143335
0.0084608
0.00329476
-0.000849533
-0.00364886
-0.00495615
-0.0046361
-0.0029048
0.00063546
0.00540157
0.0112982
0.0175412
0.0238946
0.0298549
0.0349722
0.0390084
0.0418242
0.0433351
0.0435184
0.0424309
0.0400413
0.0363866
0.0317188
0.0263134
0.0204427
0.0143837
0.00856948
0.00345021
-0.000655458
-0.00343205
-0.00472798
-0.00441069
-0.0026718
0.0008236
0.00556448
0.0113765
0.0175686
0.0238498
0.0297467
0.0348184
0.0388223
0.0416184
0.0431217
0.043307
0.0422231
0.0398517
0.0362348
0.031611
0.0262525
0.0204321
0.0144322
0.00867364
0.00359887
-0.00047015
-0.00322508
-0.0045101
-0.00419564
-0.0024503
0.00100287
0.00571505
0.0114498
0.0175929
0.0238077
0.0296452
0.0346742
0.038648
0.0414255
0.0429217
0.0431089
0.0420291
0.0396749
0.0360934
0.0315109
0.0261964
0.0204232
0.0144782
0.00877148
0.00373819
-0.000296806
-0.00303151
-0.00430633
-0.00399467
-0.00224407
0.00117022
0.00585035
0.0115164
0.0176139
0.0237691
0.0295525
0.0345427
0.0384891
0.0412496
0.0427394
0.0429285
0.0418528
0.0395146
0.0359652
0.0314204
0.0261461
0.0204159
0.0145206
0.00886086
0.00386515
-0.000139122
-0.0028555
-0.00412106
-0.00381207
-0.00205738
0.00132207
0.00596712
0.0115745
0.0176312
0.0237351
0.0294713
0.0344276
0.03835
0.0410958
0.04258
0.0427708
0.0416992
0.0393751
0.0358538
0.0313421
0.0261029
0.0204104
0.0145582
0.00893928
0.00397625
-1.40688e-06
-0.00270185
-0.00395936
-0.00365281
-0.00189513
0.00145437
0.00606147
0.0116219
0.0176446
0.0237071
0.0294047
0.0343332
0.0382362
0.0409699
0.0424495
0.0426418
0.0415739
0.0392615
0.0357632
0.0312785
0.0260682
0.0204064
0.0145894
0.00900363
0.0040672
0.000111134
-0.00257634
-0.00382732
-0.00352284
-0.00176318
0.00156225
0.00612858
0.0116559
0.0176536
0.0236867
0.0293566
0.0342651
0.038154
0.0408791
0.0423554
0.0425488
0.0414838
0.0391799
0.0356981
0.0312332
0.0260436
0.0204041
0.0146122
0.00905023
0.00413288
0.000192222
-0.00248594
-0.00373229
-0.00342927
-0.00166867
0.0016398
0.00616611
0.0116752
0.0176584
0.0236747
0.029329
0.0342261
0.038107
0.0408272
0.0423017
0.0424957
0.0414324
0.0391336
0.0356613
0.0312076
0.0260299
0.0204031
0.0146254
0.00907697
0.00417055
0.000238623
-0.00243416
-0.00367802
-0.00337553
-0.00161514
0.00168424
)
;

boundaryField
{
    rigidLid
    {
        type            fixedFluxPressure;
        gradient        uniform 0;
        value           nonuniform List<scalar> 
25
(
0.00616611
0.0116752
0.0176584
0.0236747
0.029329
0.0342261
0.038107
0.0408272
0.0423017
0.0424957
0.0414324
0.0391336
0.0356613
0.0312076
0.0260299
0.0204031
0.0146254
0.00907697
0.00417055
0.000238623
-0.00243416
-0.00367802
-0.00337553
-0.00161514
0.00168424
)
;
    }
    bed
    {
        type            fixedFluxPressure;
        gradient        uniform 0;
        value           nonuniform List<scalar> 
25
(
-1.97934e-11
0.00902135
0.0163077
0.0251169
0.0328562
0.0392382
0.0441263
0.0474689
0.0491263
0.0492925
0.0483926
0.0456456
0.0408976
0.0350123
0.0283942
0.0211772
0.0132827
0.00574699
-0.000739627
-0.00601411
-0.00945644
-0.0109934
-0.0107479
-0.00941726
-0.00464892
)
;
    }
    inlet
    {
        type            cyclic;
    }
    outlet
    {
        type            cyclic;
    }
    frontAndBack
    {
        type            empty;
    }
}


// ************************************************************************* //
